# vtk DataFile Version 3.0
#This file was generated by the deal.II library on 2022/1/6 at 22:50:31
ASCII
DATASET UNSTRUCTURED_GRID

POINTS 16384 double
0 0 0
0.1875 0 0
0 0.046875 0
0.1875 0.046875 0
0.1875 0 0
0.375 0 0
0.1875 0.046875 0
0.375 0.046875 0
0 0.046875 0
0.1875 0.046875 0
0 0.09375 0
0.1875 0.09375 0
0.1875 0.046875 0
0.375 0.046875 0
0.1875 0.09375 0
0.375 0.09375 0
0.375 0 0
0.5625 0 0
0.375 0.046875 0
0.5625 0.046875 0
0.5625 0 0
0.75 0 0
0.5625 0.046875 0
0.75 0.046875 0
0.375 0.046875 0
0.5625 0.046875 0
0.375 0.09375 0
0.5625 0.09375 0
0.5625 0.046875 0
0.75 0.046875 0
0.5625 0.09375 0
0.75 0.09375 0
0 0.09375 0
0.1875 0.09375 0
0 0.140625 0
0.1875 0.140625 0
0.1875 0.09375 0
0.375 0.09375 0
0.1875 0.140625 0
0.375 0.140625 0
0 0.140625 0
0.1875 0.140625 0
0 0.1875 0
0.1875 0.1875 0
0.1875 0.140625 0
0.375 0.140625 0
0.1875 0.1875 0
0.375 0.1875 0
0.375 0.09375 0
0.5625 0.09375 0
0.375 0.140625 0
0.5625 0.140625 0
0.5625 0.09375 0
0.75 0.09375 0
0.5625 0.140625 0
0.75 0.140625 0
0.375 0.140625 0
0.5625 0.140625 0
0.375 0.1875 0
0.5625 0.1875 0
0.5625 0.140625 0
0.75 0.140625 0
0.5625 0.1875 0
0.75 0.1875 0
0.75 0 0
0.9375 0 0
0.75 0.046875 0
0.9375 0.046875 0
0.9375 0 0
1.125 0 0
0.9375 0.046875 0
1.125 0.046875 0
0.75 0.046875 0
0.9375 0.046875 0
0.75 0.09375 0
0.9375 0.09375 0
0.9375 0.046875 0
1.125 0.046875 0
0.9375 0.09375 0
1.125 0.09375 0
1.125 0 0
1.3125 0 0
1.125 0.046875 0
1.3125 0.046875 0
1.3125 0 0
1.5 0 0
1.3125 0.046875 0
1.5 0.046875 0
1.125 0.046875 0
1.3125 0.046875 0
1.125 0.09375 0
1.3125 0.09375 0
1.3125 0.046875 0
1.5 0.046875 0
1.3125 0.09375 0
1.5 0.09375 0
0.75 0.09375 0
0.9375 0.09375 0
0.75 0.140625 0
0.9375 0.140625 0
0.9375 0.09375 0
1.125 0.09375 0
0.9375 0.140625 0
1.125 0.140625 0
0.75 0.140625 0
0.9375 0.140625 0
0.75 0.1875 0
0.9375 0.1875 0
0.9375 0.140625 0
1.125 0.140625 0
0.9375 0.1875 0
1.125 0.1875 0
1.125 0.09375 0
1.3125 0.09375 0
1.125 0.140625 0
1.3125 0.140625 0
1.3125 0.09375 0
1.5 0.09375 0
1.3125 0.140625 0
1.5 0.140625 0
1.125 0.140625 0
1.3125 0.140625 0
1.125 0.1875 0
1.3125 0.1875 0
1.3125 0.140625 0
1.5 0.140625 0
1.3125 0.1875 0
1.5 0.1875 0
0 0.1875 0
0.1875 0.1875 0
0 0.234375 0
0.1875 0.234375 0
0.1875 0.1875 0
0.375 0.1875 0
0.1875 0.234375 0
0.375 0.234375 0
0 0.234375 0
0.1875 0.234375 0
0 0.28125 0
0.1875 0.28125 0
0.1875 0.234375 0
0.375 0.234375 0
0.1875 0.28125 0
0.375 0.28125 0
0.375 0.1875 0
0.5625 0.1875 0
0.375 0.234375 0
0.5625 0.234375 0
0.5625 0.1875 0
0.75 0.1875 0
0.5625 0.234375 0
0.75 0.234375 0
0.375 0.234375 0
0.5625 0.234375 0
0.375 0.28125 0
0.5625 0.28125 0
0.5625 0.234375 0
0.75 0.234375 0
0.5625 0.28125 0
0.75 0.28125 0
0 0.28125 0
0.1875 0.28125 0
0 0.328125 0
0.1875 0.328125 0
0.1875 0.28125 0
0.375 0.28125 0
0.1875 0.328125 0
0.375 0.328125 0
0 0.328125 0
0.1875 0.328125 0
0 0.375 0
0.1875 0.375 0
0.1875 0.328125 0
0.375 0.328125 0
0.1875 0.375 0
0.375 0.375 0
0.375 0.28125 0
0.5625 0.28125 0
0.375 0.328125 0
0.5625 0.328125 0
0.5625 0.28125 0
0.75 0.28125 0
0.5625 0.328125 0
0.75 0.328125 0
0.375 0.328125 0
0.5625 0.328125 0
0.375 0.375 0
0.5625 0.375 0
0.5625 0.328125 0
0.75 0.328125 0
0.5625 0.375 0
0.75 0.375 0
0.75 0.1875 0
0.9375 0.1875 0
0.75 0.234375 0
0.9375 0.234375 0
0.9375 0.1875 0
1.125 0.1875 0
0.9375 0.234375 0
1.125 0.234375 0
0.75 0.234375 0
0.9375 0.234375 0
0.75 0.28125 0
0.9375 0.28125 0
0.9375 0.234375 0
1.125 0.234375 0
0.9375 0.28125 0
1.125 0.28125 0
1.125 0.1875 0
1.3125 0.1875 0
1.125 0.234375 0
1.3125 0.234375 0
1.3125 0.1875 0
1.5 0.1875 0
1.3125 0.234375 0
1.5 0.234375 0
1.125 0.234375 0
1.3125 0.234375 0
1.125 0.28125 0
1.3125 0.28125 0
1.3125 0.234375 0
1.5 0.234375 0
1.3125 0.28125 0
1.5 0.28125 0
0.75 0.28125 0
0.9375 0.28125 0
0.75 0.328125 0
0.9375 0.328125 0
0.9375 0.28125 0
1.125 0.28125 0
0.9375 0.328125 0
1.125 0.328125 0
0.75 0.328125 0
0.9375 0.328125 0
0.75 0.375 0
0.9375 0.375 0
0.9375 0.328125 0
1.125 0.328125 0
0.9375 0.375 0
1.125 0.375 0
1.125 0.28125 0
1.3125 0.28125 0
1.125 0.328125 0
1.3125 0.328125 0
1.3125 0.28125 0
1.5 0.28125 0
1.3125 0.328125 0
1.5 0.328125 0
1.125 0.328125 0
1.3125 0.328125 0
1.125 0.375 0
1.3125 0.375 0
1.3125 0.328125 0
1.5 0.328125 0
1.3125 0.375 0
1.5 0.375 0
1.5 0 0
1.6875 0 0
1.5 0.046875 0
1.6875 0.046875 0
1.6875 0 0
1.875 0 0
1.6875 0.046875 0
1.875 0.046875 0
1.5 0.046875 0
1.6875 0.046875 0
1.5 0.09375 0
1.6875 0.09375 0
1.6875 0.046875 0
1.875 0.046875 0
1.6875 0.09375 0
1.875 0.09375 0
1.875 0 0
2.0625 0 0
1.875 0.046875 0
2.0625 0.046875 0
2.0625 0 0
2.25 0 0
2.0625 0.046875 0
2.25 0.046875 0
1.875 0.046875 0
2.0625 0.046875 0
1.875 0.09375 0
2.0625 0.09375 0
2.0625 0.046875 0
2.25 0.046875 0
2.0625 0.09375 0
2.25 0.09375 0
1.5 0.09375 0
1.6875 0.09375 0
1.5 0.140625 0
1.6875 0.140625 0
1.6875 0.09375 0
1.875 0.09375 0
1.6875 0.140625 0
1.875 0.140625 0
1.5 0.140625 0
1.6875 0.140625 0
1.5 0.1875 0
1.6875 0.1875 0
1.6875 0.140625 0
1.875 0.140625 0
1.6875 0.1875 0
1.875 0.1875 0
1.875 0.09375 0
2.0625 0.09375 0
1.875 0.140625 0
2.0625 0.140625 0
2.0625 0.09375 0
2.25 0.09375 0
2.0625 0.140625 0
2.25 0.140625 0
1.875 0.140625 0
2.0625 0.140625 0
1.875 0.1875 0
2.0625 0.1875 0
2.0625 0.140625 0
2.25 0.140625 0
2.0625 0.1875 0
2.25 0.1875 0
2.25 0 0
2.4375 0 0
2.25 0.046875 0
2.4375 0.046875 0
2.4375 0 0
2.625 0 0
2.4375 0.046875 0
2.625 0.046875 0
2.25 0.046875 0
2.4375 0.046875 0
2.25 0.09375 0
2.4375 0.09375 0
2.4375 0.046875 0
2.625 0.046875 0
2.4375 0.09375 0
2.625 0.09375 0
2.625 0 0
2.8125 0 0
2.625 0.046875 0
2.8125 0.046875 0
2.8125 0 0
3 0 0
2.8125 0.046875 0
3 0.046875 0
2.625 0.046875 0
2.8125 0.046875 0
2.625 0.09375 0
2.8125 0.09375 0
2.8125 0.046875 0
3 0.046875 0
2.8125 0.09375 0
3 0.09375 0
2.25 0.09375 0
2.4375 0.09375 0
2.25 0.140625 0
2.4375 0.140625 0
2.4375 0.09375 0
2.625 0.09375 0
2.4375 0.140625 0
2.625 0.140625 0
2.25 0.140625 0
2.4375 0.140625 0
2.25 0.1875 0
2.4375 0.1875 0
2.4375 0.140625 0
2.625 0.140625 0
2.4375 0.1875 0
2.625 0.1875 0
2.625 0.09375 0
2.8125 0.09375 0
2.625 0.140625 0
2.8125 0.140625 0
2.8125 0.09375 0
3 0.09375 0
2.8125 0.140625 0
3 0.140625 0
2.625 0.140625 0
2.8125 0.140625 0
2.625 0.1875 0
2.8125 0.1875 0
2.8125 0.140625 0
3 0.140625 0
2.8125 0.1875 0
3 0.1875 0
1.5 0.1875 0
1.6875 0.1875 0
1.5 0.234375 0
1.6875 0.234375 0
1.6875 0.1875 0
1.875 0.1875 0
1.6875 0.234375 0
1.875 0.234375 0
1.5 0.234375 0
1.6875 0.234375 0
1.5 0.28125 0
1.6875 0.28125 0
1.6875 0.234375 0
1.875 0.234375 0
1.6875 0.28125 0
1.875 0.28125 0
1.875 0.1875 0
2.0625 0.1875 0
1.875 0.234375 0
2.0625 0.234375 0
2.0625 0.1875 0
2.25 0.1875 0
2.0625 0.234375 0
2.25 0.234375 0
1.875 0.234375 0
2.0625 0.234375 0
1.875 0.28125 0
2.0625 0.28125 0
2.0625 0.234375 0
2.25 0.234375 0
2.0625 0.28125 0
2.25 0.28125 0
1.5 0.28125 0
1.6875 0.28125 0
1.5 0.328125 0
1.6875 0.328125 0
1.6875 0.28125 0
1.875 0.28125 0
1.6875 0.328125 0
1.875 0.328125 0
1.5 0.328125 0
1.6875 0.328125 0
1.5 0.375 0
1.6875 0.375 0
1.6875 0.328125 0
1.875 0.328125 0
1.6875 0.375 0
1.875 0.375 0
1.875 0.28125 0
2.0625 0.28125 0
1.875 0.328125 0
2.0625 0.328125 0
2.0625 0.28125 0
2.25 0.28125 0
2.0625 0.328125 0
2.25 0.328125 0
1.875 0.328125 0
2.0625 0.328125 0
1.875 0.375 0
2.0625 0.375 0
2.0625 0.328125 0
2.25 0.328125 0
2.0625 0.375 0
2.25 0.375 0
2.25 0.1875 0
2.4375 0.1875 0
2.25 0.234375 0
2.4375 0.234375 0
2.4375 0.1875 0
2.625 0.1875 0
2.4375 0.234375 0
2.625 0.234375 0
2.25 0.234375 0
2.4375 0.234375 0
2.25 0.28125 0
2.4375 0.28125 0
2.4375 0.234375 0
2.625 0.234375 0
2.4375 0.28125 0
2.625 0.28125 0
2.625 0.1875 0
2.8125 0.1875 0
2.625 0.234375 0
2.8125 0.234375 0
2.8125 0.1875 0
3 0.1875 0
2.8125 0.234375 0
3 0.234375 0
2.625 0.234375 0
2.8125 0.234375 0
2.625 0.28125 0
2.8125 0.28125 0
2.8125 0.234375 0
3 0.234375 0
2.8125 0.28125 0
3 0.28125 0
2.25 0.28125 0
2.4375 0.28125 0
2.25 0.328125 0
2.4375 0.328125 0
2.4375 0.28125 0
2.625 0.28125 0
2.4375 0.328125 0
2.625 0.328125 0
2.25 0.328125 0
2.4375 0.328125 0
2.25 0.375 0
2.4375 0.375 0
2.4375 0.328125 0
2.625 0.328125 0
2.4375 0.375 0
2.625 0.375 0
2.625 0.28125 0
2.8125 0.28125 0
2.625 0.328125 0
2.8125 0.328125 0
2.8125 0.28125 0
3 0.28125 0
2.8125 0.328125 0
3 0.328125 0
2.625 0.328125 0
2.8125 0.328125 0
2.625 0.375 0
2.8125 0.375 0
2.8125 0.328125 0
3 0.328125 0
2.8125 0.375 0
3 0.375 0
0 0.375 0
0.1875 0.375 0
0 0.421875 0
0.1875 0.421875 0
0.1875 0.375 0
0.375 0.375 0
0.1875 0.421875 0
0.375 0.421875 0
0 0.421875 0
0.1875 0.421875 0
0 0.46875 0
0.1875 0.46875 0
0.1875 0.421875 0
0.375 0.421875 0
0.1875 0.46875 0
0.375 0.46875 0
0.375 0.375 0
0.5625 0.375 0
0.375 0.421875 0
0.5625 0.421875 0
0.5625 0.375 0
0.75 0.375 0
0.5625 0.421875 0
0.75 0.421875 0
0.375 0.421875 0
0.5625 0.421875 0
0.375 0.46875 0
0.5625 0.46875 0
0.5625 0.421875 0
0.75 0.421875 0
0.5625 0.46875 0
0.75 0.46875 0
0 0.46875 0
0.1875 0.46875 0
0 0.515625 0
0.1875 0.515625 0
0.1875 0.46875 0
0.375 0.46875 0
0.1875 0.515625 0
0.375 0.515625 0
0 0.515625 0
0.1875 0.515625 0
0 0.5625 0
0.1875 0.5625 0
0.1875 0.515625 0
0.375 0.515625 0
0.1875 0.5625 0
0.375 0.5625 0
0.375 0.46875 0
0.5625 0.46875 0
0.375 0.515625 0
0.5625 0.515625 0
0.5625 0.46875 0
0.75 0.46875 0
0.5625 0.515625 0
0.75 0.515625 0
0.375 0.515625 0
0.5625 0.515625 0
0.375 0.5625 0
0.5625 0.5625 0
0.5625 0.515625 0
0.75 0.515625 0
0.5625 0.5625 0
0.75 0.5625 0
0.75 0.375 0
0.9375 0.375 0
0.75 0.421875 0
0.9375 0.421875 0
0.9375 0.375 0
1.125 0.375 0
0.9375 0.421875 0
1.125 0.421875 0
0.75 0.421875 0
0.9375 0.421875 0
0.75 0.46875 0
0.9375 0.46875 0
0.9375 0.421875 0
1.125 0.421875 0
0.9375 0.46875 0
1.125 0.46875 0
1.125 0.375 0
1.3125 0.375 0
1.125 0.421875 0
1.3125 0.421875 0
1.3125 0.375 0
1.5 0.375 0
1.3125 0.421875 0
1.5 0.421875 0
1.125 0.421875 0
1.3125 0.421875 0
1.125 0.46875 0
1.3125 0.46875 0
1.3125 0.421875 0
1.5 0.421875 0
1.3125 0.46875 0
1.5 0.46875 0
0.75 0.46875 0
0.9375 0.46875 0
0.75 0.515625 0
0.9375 0.515625 0
0.9375 0.46875 0
1.125 0.46875 0
0.9375 0.515625 0
1.125 0.515625 0
0.75 0.515625 0
0.9375 0.515625 0
[...]
POINT_DATA 16384
SCALARS x_displacement double 1
LOOKUP_TABLE default
0 0.0330838 0 0.0296447 0.0330838 0.058247 0.0296447 0.056696 0 0.0296447 0 0.0272821 0.0296447 0.056696 0.0272821 0.0540322 0.058247 0.0737362 0.056696 0.0725515 0.0737362 0.0793718 0.0725515 0.0786724 0.056696 0.0725515 0.0540322 0.0706661 0.0725515 0.0786724 0.0706661 0.0775209 0 0.0272821 0 0.0253345 0.0272821 0.0540322 0.0253345 0.0505578 0 0.0253345 0 0.0236952 0.0253345 0.0505578 0.0236952 0.0470127 0.0540322 0.0706661 0.0505578 0.0679806 0.0706661 0.0775209 0.0679806 0.075956 0.0505578 0.0679806 0.0470127 0.0643479 0.0679806 0.075956 0.0643479 0.07411 0.0793718 0.0845123 0.0786724 0.0842623 0.0845123 0.090133 0.0842623 0.0902083 0.0786724 0.0842623 0.0775209 0.083767 0.0842623 0.0902083 0.083767 0.090096 0.090133 0.09578 0.0902083 0.0959819 0.09578 0.101096 0.0959819 0.101346 0.0902083 0.0959819 0.090096 0.0960525 0.0959819 0.101346 0.0960525 0.101496 0.0775209 0.083767 0.075956 0.0830672 0.083767 0.090096 0.0830672 0.0898245 0.075956 0.0830672 0.07411 0.0822102 0.0830672 0.0898245 0.0822102 0.0894159 0.090096 0.0960525 0.0898245 0.0960016 0.0960525 0.101496 0.0960016 0.101555 0.0898245 0.0960016 0.0894159 0.0958435 0.0960016 0.101555 0.0958435 0.101529 0 0.0236952 0 0.0223057 0.0236952 0.0470127 0.0223057 0.0436892 0 0.0223057 0 0.0210826 0.0223057 0.0436892 0.0210826 0.0410563 0.0470127 0.0643479 0.0436892 0.0606493 0.0643479 0.07411 0.0606493 0.0722192 0.0436892 0.0606493 0.0410563 0.0576901 0.0606493 0.0722192 0.0576901 0.07032 0 0.0210826 0 0.0200516 0.0210826 0.0410563 0.0200516 0.0389693 0 0.0200516 0 0.0192027 0.0200516 0.0389693 0.0192027 0.0373071 0.0410563 0.0576901 0.0389693 0.0553272 0.0576901 0.07032 0.0553272 0.0685402 0.0389693 0.0553272 0.0373071 0.053399 0.0553272 0.0685402 0.053399 0.0669291 0.07411 0.0822102 0.0722192 0.0812194 0.0822102 0.0894159 0.0812194 0.0888983 0.0722192 0.0812194 0.07032 0.0801524 0.0812194 0.0888983 0.0801524 0.0882934 0.0894159 0.0958435 0.0888983 0.0955918 0.0958435 0.101529 0.0955918 0.101426 0.0888983 0.0955918 0.0882934 0.0952606 0.0955918 0.101426 0.0952606 0.101256 0.07032 0.0801524 0.0685402 0.0790429 0.0801524 0.0882934 0.0790429 0.0876256 0.0685402 0.0790429 0.0669291 0.0779328 0.0790429 0.0876256 0.0779328 0.0869146 0.0882934 0.0952606 0.0876256 0.0948635 0.0952606 0.101256 0.0948635 0.101025 0.0876256 0.0948635 0.0869146 0.0944141 0.0948635 0.101025 0.0944141 0.100744 0.101096 0.105939 0.101346 0.106191 0.105939 0.110257 0.106191 0.110483 0.101346 0.106191 0.101496 0.106367 0.106191 0.110483 0.106367 0.11065 0.110257 0.114045 0.110483 0.114227 0.114045 0.117322 0.114227 0.117452 0.110483 0.114227 0.11065 0.114366 0.114227 0.117452 0.114366 0.117549 0.101496 0.106367 0.101555 0.106471 0.106367 0.11065 0.106471 0.110762 0.101555 0.106471 0.101529 0.106508 0.106471 0.110762 0.106508 0.110821 0.11065 0.114366 0.110762 0.114461 0.114366 0.117549 0.114461 0.117613 0.110762 0.114461 0.110821 0.114515 0.114461 0.117613 0.114515 0.117646 0.117322 0.120122 0.117452 0.120196 0.120122 0.12249 0.120196 0.122507 0.117452 0.120196 0.117549 0.120246 0.120196 0.122507 0.120246 0.122507 0.12249 0.12447 0.122507 0.124432 0.12447 0.12611 0.124432 0.126022 0.122507 0.124432 0.122507 0.124384 0.124432 0.126022 0.124384 0.125928 0.117549 0.120246 0.117613 0.120271 0.120246 0.122507 0.120271 0.12249 0.117613 0.120271 0.117646 0.120273 0.120271 0.12249 0.120273 0.122456 0.122507 0.124384 0.12249 0.124324 0.124384 0.125928 0.124324 0.125826 0.12249 0.124324 0.122456 0.124252 0.124324 0.125826 0.124252 0.125717 0.101529 0.106508 0.101426 0.106484 0.106508 0.110821 0.106484 0.110831 0.101426 0.106484 0.101256 0.106403 0.106484 0.110831 0.106403 0.110794 0.110821 0.114515 0.110831 0.11453 0.114515 0.117646 0.11453 0.117649 0.110831 0.11453 0.110794 0.114508 0.11453 0.117649 0.114508 0.117622 0.101256 0.106403 0.101025 0.106271 0.106403 0.110794 0.106271 0.110714 0.101025 0.106271 0.100744 0.106093 0.106271 0.110714 0.106093 0.110596 0.110794 0.114508 0.110714 0.114451 0.114508 0.117622 0.114451 0.117567 0.110714 0.114451 0.110596 0.114362 0.114451 0.117567 0.114362 0.117486 0.117646 0.120273 0.117649 0.120252 0.120273 0.122456 0.120252 0.122404 0.117649 0.120252 0.117622 0.120208 0.120252 0.122404 0.120208 0.122336 0.122456 0.124252 0.122404 0.124167 0.124252 0.125717 0.124167 0.125599 0.122404 0.124167 0.122336 0.124071 0.124167 0.125599 0.124071 0.125473 0.117622 0.120208 0.117567 0.120142 0.120208 0.122336 0.120142 0.122251 0.117567 0.120142 0.117486 0.120056 0.120142 0.122251 0.120056 0.122149 0.122336 0.124071 0.122251 0.123961 0.124071 0.125473 0.123961 0.125337 0.122251 0.123961 0.122149 0.12384 0.123961 0.125337 0.12384 0.125192 0 0.0192027 0 0.0185119 0.0192027 0.0373071 0.0185119 0.0359746 0 0.0185119 0 0.0179521 0.0185119 0.0359746 0.0179521 0.0348989 0.0373071 0.053399 0.0359746 0.0518058 0.053399 0.0669291 0.0518058 0.0654915 0.0359746 0.0518058 0.0348989 0.050478 0.0518058 0.0654915 0.050478 0.0642173 0 0.0179521 0 0.0174982 0.0179521 0.0348989 0.0174982 0.0340247 0 0.0174982 0 0.0171288 0.0174982 0.0340247 0.0171288 0.0333091 0.0348989 0.050478 0.0340247 0.049364 0.050478 0.0642173 0.049364 0.0630912 0.0340247 0.049364 0.0333091 0.0484238 0.049364 0.0630912 0.0484238 0.0620971 0.0669291 0.0779328 0.0654915 0.0768547 0.0779328 0.0869146 0.0768547 0.0861792 0.0654915 0.0768547 0.0642173 0.0758291 0.0768547 0.0861792 0.0758291 0.0854363 0.0869146 0.0944141 0.0861792 0.0939248 0.0944141 0.100744 0.0939248 0.10042 0.0861792 0.0939248 0.0854363 0.0934067 0.0939248 0.10042 0.0934067 0.100061 0.0642173 0.0758291 0.0630912 0.0748668 0.0758291 0.0854363 0.0748668 0.0847 0.0630912 0.0748668 0.0620971 0.0739722 0.0748668 0.0847 0.0739722 0.0839807 0.0854363 0.0934067 0.0847 0.0928701 0.0934067 0.100061 0.0928701 0.0996736 0.0847 0.0928701 0.0839807 0.0923238 0.0928701 0.0996736 0.0923238 0.0992656 0 0.0171288 0 0.0168265 0.0171288 0.0333091 0.0168265 0.0327191 0 0.0168265 0 0.0165776 0.0168265 0.0327191 0.0165776 0.032229 0.0333091 0.0484238 0.0327191 0.047626 0.0484238 0.0620971 0.047626 0.0612192 0.0327191 0.047626 0.032229 0.0469453 0.047626 0.0612192 0.0469453 0.0604432 0 0.0165776 0 0.0163708 0.0165776 0.032229 0.0163708 0.0318188 0 0.0163708 0 0.0161978 0.0163708 0.0318188 0.0161978 0.0314725 0.032229 0.0469453 0.0318188 0.0463614 0.0469453 0.0604432 0.0463614 0.0597559 0.0318188 0.0463614 0.0314725 0.0458575 0.0463614 0.0597559 0.0458575 0.0591458 0.0620971 0.0739722 0.0612192 0.0731457 0.0739722 0.0839807 0.0731457 0.083286 0.0612192 0.0731457 0.0604432 0.0723853 0.0731457 0.083286 0.0723853 0.0826207 0.0839807 0.0923238 0.083286 0.0917754 0.0923238 0.0992656 0.0917754 0.0988425 0.083286 0.0917754 0.0826207 0.0912311 0.0917754 0.0988425 0.0912311 0.0984098 0.0604432 0.0723853 0.0597559 0.0716875 0.0723853 0.0826207 0.0716875 0.0819876 0.0597559 0.0716875 0.0591458 0.0710481 0.0716875 0.0819876 0.0710481 0.0813881 0.0826207 0.0912311 0.0819876 0.0906958 0.0912311 0.0984098 0.0906958 0.097972 0.0819876 0.0906958 0.0813881 0.0901732 0.0906958 0.097972 0.0901732 0.0975332 0.100744 0.106093 0.10042 0.105875 0.106093 0.110596 0.105875 0.110442 0.10042 0.105875 0.100061 0.105622 0.105875 0.110442 0.105622 0.110256 0.110596 0.114362 0.110442 0.114242 0.114362 0.117486 0.114242 0.11738 0.110442 0.114242 0.110256 0.114095 0.114242 0.11738 0.114095 0.11725 0.100061 0.105622 0.0996736 0.105339 0.105622 0.110256 0.105339 0.110042 0.0996736 0.105339 0.0992656 0.105032 0.105339 0.110042 0.105032 0.109803 0.110256 0.114095 0.110042 0.113922 0.114095 0.11725 0.113922 0.117099 0.110042 0.113922 0.109803 0.113727 0.113922 0.117099 0.113727 0.116927 0.117486 0.120056 0.11738 0.119948 0.120056 0.122149 0.119948 0.122032 0.11738 0.119948 0.11725 0.119822 0.119948 0.122032 0.119822 0.121899 0.122149 0.12384 0.122032 0.123706 0.12384 0.125192 0.123706 0.125039 0.122032 0.123706 0.121899 0.12356 0.123706 0.125039 0.12356 0.124875 0.11725 0.119822 0.117099 0.119678 0.119822 0.121899 0.119678 0.121751 0.117099 0.119678 0.116927 0.119516 0.119678 0.121751 0.119516 0.121588 0.121899 0.12356 0.121751 0.123401 0.12356 0.124875 0.123401 0.124703 0.121751 0.123401 0.121588 0.123232 0.123401 0.124703 0.123232 0.124521 0.0992656 0.105032 0.0988425 0.104704 0.105032 0.109803 0.104704 0.109543 0.0988425 0.104704 0.0984098 0.104361 0.104704 0.109543 0.104361 0.109265 0.109803 0.113727 0.109543 0.113511 0.113727 0.116927 0.113511 0.116737 0.109543 0.113511 0.109265 0.113276 0.113511 0.116737 0.113276 0.11653 0.0984098 0.104361 0.097972 0.104005 0.104361 0.109265 0.104005 0.108971 0.097972 0.104005 0.0975332 0.10364 0.104005 0.108971 0.10364 0.108664 0.109265 0.113276 0.108971 0.113026 0.113276 0.11653 0.113026 0.116308 0.108971 0.113026 0.108664 0.112762 0.113026 0.116308 0.112762 0.116071 0.116927 0.119516 0.116737 0.119338 0.119516 0.121588 0.119338 0.121412 0.116737 0.119338 0.11653 0.119145 0.119338 0.121412 0.119145 0.121223 0.121588 0.123232 0.121412 0.123051 0.123232 0.124521 0.123051 0.12433 0.121412 0.123051 0.121223 0.122858 0.123051 0.12433 0.122858 0.12413 0.11653 0.119145 0.116308 0.118937 0.119145 0.121223 0.118937 0.121022 0.116308 0.118937 0.116071 0.118717 0.118937 0.121022 0.118717 0.120809 0.121223 0.122858 0.121022 0.122656 0.122858 0.12413 0.122656 0.123921 0.121022 0.122656 0.120809 0.122443 0.122656 0.123921 0.122443 0.123703 0.12611 0.127456 0.126022 0.127323 0.127456 0.12855 0.127323 0.128378 0.126022 0.127323 0.125928 0.127187 0.127323 0.128378 0.127187 0.128204 0.12855 0.129432 0.128378 0.129225 0.129432 0.130137 0.129225 0.129902 0.128378 0.129225 0.128204 0.12902 0.129225 0.129902 0.12902 0.129668 0.125928 0.127187 0.125826 0.127046 0.127187 0.128204 0.127046 0.128029 0.125826 0.127046 0.125717 0.126902 0.127046 0.128029 0.126902 0.127852 0.128204 0.12902 0.128029 0.128814 0.12902 0.129668 0.128814 0.129436 0.128029 0.128814 0.127852 0.128608 0.128814 0.129436 0.128608 0.129205 0.130137 0.130696 0.129902 0.130437 0.130696 0.131135 0.130437 0.130857 0.129902 0.130437 0.129668 0.13018 0.130437 0.130857 0.13018 0.130581 0.131135 0.131478 0.130857 0.131184 0.131478 0.131743 0.131184 0.131437 0.130857 0.131184 0.130581 0.130893 0.131184 0.131437 0.130893 0.131134 0.129668 0.13018 0.129436 0.129926 0.13018 0.130581 0.129926 0.130308 0.129436 0.129926 0.129205 0.129673 0.129926 0.130308 0.129673 0.130037 0.130581 0.130893 0.130308 0.130605 0.130893 0.131134 0.130605 0.130834 0.130308 0.130605 0.130037 0.130319 0.130605 0.130834 0.130319 0.130536 0.125717 0.126902 0.125599 0.126751 0.126902 0.127852 0.126751 0.127671 0.125599 0.126751 0.125473 0.126595 0.126751 0.127671 0.126595 0.127488 0.127852 0.128608 0.127671 0.1284 0.128608 0.129205 0.1284 0.128973 0.127671 0.1284 0.127488 0.128191 0.1284 0.128973 0.128191 0.128741 0.125473 0.126595 0.125337 0.126433 0.126595 0.127488 0.126433 0.1273 0.125337 0.126433 0.125192 0.126265 0.126433 0.1273 0.126265 0.127108 0.127488 0.128191 0.1273 0.12798 0.128191 0.128741 0.12798 0.128508 0.1273 0.12798 0.127108 0.127766 0.12798 0.128508 0.127766 0.128274 0.129205 0.129673 0.128973 0.129421 0.129673 0.130037 0.129421 0.129768 0.128973 0.129421 0.128741 0.129169 0.129421 0.129768 0.129169 0.129499 0.130037 0.130319 0.129768 0.130035 0.130319 0.130536 0.130035 0.13024 0.129768 0.130035 0.129499 0.129752 0.130035 0.13024 0.129752 0.129945 0.128741 0.129169 0.128508 0.128917 0.129169 0.129499 0.128917 0.12923 0.128508 0.128917 0.128274 0.128665 0.128917 0.12923 0.128665 0.128962 0.129499 0.129752 0.12923 0.12947 0.129752 0.129945 0.12947 0.129651 0.12923 0.12947 0.128962 0.129188 0.12947 0.129651 0.129188 0.129358 0.131743 0.131946 0.131437 0.131631 0.131946 0.1321 0.131631 0.131779 0.131437 0.131631 0.131134 0.131319 0.131631 0.131779 0.131319 0.13146 0.1321 0.132217 0.131779 0.13189 0.132217 0.132304 0.13189 0.131974 0.131779 0.13189 0.13146 0.131566 0.13189 0.131974 0.131566 0.131646 0.131134 0.131319 0.130834 0.131009 0.131319 0.13146 0.131009 0.131143 0.130834 0.131009 0.130536 0.130702 0.131009 0.131143 0.130702 0.130827 0.13146 0.131566 0.131143 0.131243 0.131566 0.131646 0.131243 0.131319 0.131143 0.131243 0.130827 0.130922 0.131243 0.131319 0.130922 0.130993 0.132304 0.132368 0.131974 0.132036 0.132368 0.132416 0.132036 0.132081 0.131974 0.132036 0.131646 0.131705 0.132036 0.132081 0.131705 0.131748 0.132416 0.13245 0.132081 0.132114 0.13245 0.132474 0.132114 0.132138 0.132081 0.132114 0.131748 0.13178 0.132114 0.132138 0.13178 0.131803 0.131646 0.131705 0.131319 0.131375 0.131705 0.131748 0.131375 0.131416 0.131319 0.131375 0.130993 0.131046 0.131375 0.131416 0.131046 0.131085 0.131748 0.13178 0.131416 0.131446 0.13178 0.131803 0.131446 0.131468 0.131416 0.131446 0.131085 0.131114 0.131446 0.131468 0.131114 0.131134 0.130536 0.130702 0.13024 0.130396 0.130702 0.130827 0.130396 0.130514 0.13024 0.130396 0.129945 0.130091 0.130396 0.130514 0.130091 0.130202 0.130827 0.130922 0.130514 0.130603 0.130922 0.130993 0.130603 0.130669 0.130514 0.130603 0.130202 0.130284 0.130603 0.130669 0.130284 0.130346 0.129945 0.130091 0.129651 0.129788 0.130091 0.130202 0.129788 0.12989 0.129651 0.129788 0.129358 0.129485 0.129788 0.12989 0.129485 0.12958 0.130202 0.130284 0.12989 0.129967 0.130284 0.130346 0.129967 0.130024 0.12989 0.129967 0.12958 0.129651 0.129967 0.130024 0.129651 0.129703 0.130993 0.131046 0.130669 0.130719 0.131046 0.131085 0.130719 0.130755 0.130669 0.130719 0.130346 0.130392 0.130719 0.130755 0.130392 0.130426 0.131085 0.131114 0.130755 0.130782 0.131114 0.131134 0.130782 0.130801 0.130755 0.130782 0.130426 0.13045 0.130782 0.130801 0.13045 0.130468 0.130346 0.130392 0.130024 0.130066 0.130392 0.130426 0.130066 0.130097 0.130024 0.130066 0.129703 0.129741 0.130066 0.130097 0.129741 0.129769 0.130426 0.13045 0.130097 0.13012 0.13045 0.130468 0.13012 0.130136 0.130097 0.13012 0.129769 0.129789 0.13012 0.130136 0.129789 0.129804 0.125192 0.126265 0.125039 0.12609 0.126265 0.127108 0.12609 0.126911 0.125039 0.12609 0.124875 0.125908 0.12609 0.126911 0.125908 0.12671 0.127108 0.127766 0.126911 0.127548 0.127766 0.128274 0.127548 0.128038 0.126911 0.127548 0.12671 0.127328 0.127548 0.128038 0.127328 0.127799 0.124875 0.125908 0.124703 0.125718 0.125908 0.12671 0.125718 0.126503 0.124703 0.125718 0.124521 0.125522 0.125718 0.126503 0.125522 0.12629 0.12671 0.127328 0.126503 0.127103 0.127328 0.127799 0.127103 0.127558 0.126503 0.127103 0.12629 0.126875 0.127103 0.127558 0.126875 0.127314 0.128274 0.128665 0.128038 0.128411 0.128665 0.128962 0.128411 0.128694 0.128038 0.128411 0.127799 0.128156 0.128411 0.128694 0.128156 0.128425 0.128962 0.129188 0.128694 0.128906 0.129188 0.129358 0.128906 0.129065 0.128694 0.128906 0.128425 0.128625 0.128906 0.129065 0.128625 0.128773 0.127799 0.128156 0.127558 0.1279 0.128156 0.128425 0.1279 0.128155 0.127558 0.1279 0.127314 0.127642 0.1279 0.128155 0.127642 0.127883 0.128425 0.128625 0.128155 0.128342 0.128625 0.128773 0.128342 0.12848 0.128155 0.128342 0.127883 0.12806 0.128342 0.12848 0.12806 0.128187 0.124521 0.125522 0.12433 0.125318 0.125522 0.12629 0.125318 0.126072 0.12433 0.125318 0.12413 0.125107 0.125318 0.126072 0.125107 0.125848 0.12629 0.126875 0.126072 0.126642 0.126875 0.127314 0.126642 0.127067 0.126072 0.126642 0.125848 0.126405 0.126642 0.127067 0.126405 0.126817 0.12413 0.125107 0.123921 0.124888 0.125107 0.125848 0.124888 0.125619 0.123921 0.124888 0.123703 0.124662 0.124888 0.125619 0.124662 0.125383 0.125848 0.126405 0.125619 0.126163 0.126405 0.126817 0.126163 0.126563 0.125619 0.126163 0.125383 0.125916 0.126163 0.126563 0.125916 0.126305 0.127314 0.127642 0.127067 0.127381 0.127642 0.127883 0.127381 0.12761 0.127067 0.127381 0.126817 0.127118 0.127381 0.12761 0.127118 0.127335 0.127883 0.12806 0.12761 0.127776 0.12806 0.128187 0.127776 0.127894 0.12761 0.127776 0.127335 0.12749 0.127776 0.127894 0.12749 0.127599 0.126817 0.127118 0.126563 0.126852 0.127118 0.127335 0.126852 0.127059 0.126563 0.126852 0.126305 0.126583 0.126852 0.127059 0.126583 0.126779 0.127335 0.12749 0.127059 0.127204 0.12749 0.127599 0.127204 0.127304 0.127059 0.127204 0.126779 0.126915 0.127204 0.127304 0.126915 0.127007 0.129358 0.129485 0.129065 0.129183 0.129485 0.12958 0.129183 0.129271 0.129065 0.129183 0.128773 0.128882 0.129183 0.129271 0.128882 0.128962 0.12958 0.129651 0.129271 0.129335 0.129651 0.129703 0.129335 0.129382 0.129271 0.129335 0.128962 0.12902 0.129335 0.129382 0.12902 0.129062 0.128773 0.128882 0.12848 0.12858 0.128882 0.128962 0.12858 0.128653 0.12848 0.12858 0.128187 0.128279 0.12858 0.128653 0.128279 0.128344 0.128962 0.12902 0.128653 0.128705 0.12902 0.129062 0.128705 0.128742 0.128653 0.128705 0.128344 0.12839 0.128705 0.128742 0.12839 0.128423 0.129703 0.129741 0.129382 0.129417 0.129741 0.129769 0.129417 0.129442 0.129382 0.129417 0.129062 0.129093 0.129417 0.129442 0.129093 0.129115 0.129769 0.129789 0.129442 0.12946 0.129789 0.129804 0.12946 0.129473 0.129442 0.12946 0.129115 0.12913 0.12946 0.129473 0.12913 0.129142 0.129062 0.129093 0.128742 0.128769 0.129093 0.129115 0.128769 0.128788 0.128742 0.128769 0.128423 0.128446 0.128769 0.128788 0.128446 0.128462 0.129115 0.12913 0.128788 0.128801 0.12913 0.129142 0.128801 0.128811 0.128788 0.128801 0.128462 0.128473 0.128801 0.128811 0.128473 0.12848 0.128187 0.128279 0.127894 0.127977 0.128279 0.128344 0.127977 0.128035 0.127894 0.127977 0.127599 0.127675 0.127977 0.128035 0.127675 0.127726 0.128344 0.12839 0.128035 0.128076 0.12839 0.128423 0.128076 0.128104 0.128035 0.128076 0.127726 0.127761 0.128076 0.128104 0.127761 0.127784 0.127599 0.127675 0.127304 0.127372 0.127675 0.127726 0.127372 0.127417 0.127304 0.127372 0.127007 0.127068 0.127372 0.127417 0.127068 0.127106 0.127726 0.127761 0.127417 0.127446 0.127761 0.127784 0.127446 0.127465 0.127417 0.127446 0.127106 0.127131 0.127446 0.127465 0.127131 0.127145 0.128423 0.128446 0.128104 0.128123 0.128446 0.128462 0.128123 0.128135 0.128104 0.128123 0.127784 0.127799 0.128123 0.128135 0.127799 0.127809 0.128462 0.128473 0.128135 0.128144 0.128473 0.12848 0.128144 0.12815 0.128135 0.128144 0.127809 0.127816 0.128144 0.12815 0.127816 0.12782 0.127784 0.127799 0.127465 0.127476 0.127799 0.127809 0.127476 0.127483 0.127465 0.127476 0.127145 0.127153 0.127476 0.127483 0.127153 0.127157 0.127809 0.127816 0.127483 0.127487 0.127816 0.12782 0.127487 0.127489 0.127483 0.127487 0.127157 0.127159 0.127487 0.127489 0.127159 0.127159 0 0.0161978 0 0.0160516 0.0161978 0.0314725 0.0160516 0.0311779 0 0.0160516 0 0.015927 0.0160516 0.0311779 0.015927 0.030925 0.0314725 0.0458575 0.0311779 0.0454203 0.0458575 0.0591458 0.0454203 0.0586027 0.0311779 0.0454203 0.030925 0.0450385 0.0454203 0.0586027 0.0450385 0.0581178 0 0.015927 0 0.0158197 0.015927 0.030925 0.0158197 0.0307061 0 0.0158197 0 0.0157265 0.0158197 0.0307061 0.0157265 0.0305149 0.030925 0.0450385 0.0307061 0.0447031 0.0450385 0.0581178 0.0447031 0.0576832 0.0307061 0.0447031 0.0305149 0.0444066 0.0447031 0.0576832 0.0444066 0.0572924 0.0591458 0.0710481 0.0586027 0.0704625 0.0710481 0.0813881 0.0704625 0.0808225 0.0586027 0.0704625 0.0581178 0.0699259 0.0704625 0.0808225 0.0699259 0.0802901 0.0813881 0.0901732 0.0808225 0.0896661 0.0901732 0.0975332 0.0896661 0.0970966 0.0808225 0.0896661 0.0802901 0.0891762 0.0896661 0.0970966 0.0891762 0.0966649 0.0581178 0.0699259 0.0576832 0.0694341 0.0699259 0.0802901 0.0694341 0.07979 0.0576832 0.0694341 0.0572924 0.0689826 0.0694341 0.07979 0.0689826 0.0793206 0.0802901 0.0891762 0.07979 0.0887047 0.0891762 0.0966649 0.0887047 0.0962402 0.07979 0.0887047 0.0793206 0.0882523 0.0887047 0.0962402 0.0882523 0.0958242 0 0.0157265 0 0.0156446 0.0157265 0.0305149 0.0156446 0.0303465 0 0.0156446 0 0.015572 0.0156446 0.0303465 0.015572 0.0301968 0.0305149 0.0444066 0.0303465 0.0441428 0.0444066 0.0572924 0.0441428 0.0569395 0.0303465 0.0441428 0.0301968 0.0439065 0.0441428 0.0569395 0.0439065 0.0566196 0 0.015572 0 0.015507 0.015572 0.030