# vtk DataFile Version 3.0
#This file was generated by the deal.II library on 2022/1/6 at 22:36:37
ASCII
DATASET UNSTRUCTURED_GRID

POINTS 16384 double
0 0 0
0.1875 0 0
0 0.046875 0
0.1875 0.046875 0
0.1875 0 0
0.375 0 0
0.1875 0.046875 0
0.375 0.046875 0
0 0.046875 0
0.1875 0.046875 0
0 0.09375 0
0.1875 0.09375 0
0.1875 0.046875 0
0.375 0.046875 0
0.1875 0.09375 0
0.375 0.09375 0
0.375 0 0
0.5625 0 0
0.375 0.046875 0
0.5625 0.046875 0
0.5625 0 0
0.75 0 0
0.5625 0.046875 0
0.75 0.046875 0
0.375 0.046875 0
0.5625 0.046875 0
0.375 0.09375 0
0.5625 0.09375 0
0.5625 0.046875 0
0.75 0.046875 0
0.5625 0.09375 0
0.75 0.09375 0
0 0.09375 0
0.1875 0.09375 0
0 0.140625 0
0.1875 0.140625 0
0.1875 0.09375 0
0.375 0.09375 0
0.1875 0.140625 0
0.375 0.140625 0
0 0.140625 0
0.1875 0.140625 0
0 0.1875 0
0.1875 0.1875 0
0.1875 0.140625 0
0.375 0.140625 0
0.1875 0.1875 0
0.375 0.1875 0
0.375 0.09375 0
0.5625 0.09375 0
0.375 0.140625 0
0.5625 0.140625 0
0.5625 0.09375 0
0.75 0.09375 0
0.5625 0.140625 0
0.75 0.140625 0
0.375 0.140625 0
0.5625 0.140625 0
0.375 0.1875 0
0.5625 0.1875 0
0.5625 0.140625 0
0.75 0.140625 0
0.5625 0.1875 0
0.75 0.1875 0
0.75 0 0
0.9375 0 0
0.75 0.046875 0
0.9375 0.046875 0
0.9375 0 0
1.125 0 0
0.9375 0.046875 0
1.125 0.046875 0
0.75 0.046875 0
0.9375 0.046875 0
0.75 0.09375 0
0.9375 0.09375 0
0.9375 0.046875 0
1.125 0.046875 0
0.9375 0.09375 0
1.125 0.09375 0
1.125 0 0
1.3125 0 0
1.125 0.046875 0
1.3125 0.046875 0
1.3125 0 0
1.5 0 0
1.3125 0.046875 0
1.5 0.046875 0
1.125 0.046875 0
1.3125 0.046875 0
1.125 0.09375 0
1.3125 0.09375 0
1.3125 0.046875 0
1.5 0.046875 0
1.3125 0.09375 0
1.5 0.09375 0
0.75 0.09375 0
0.9375 0.09375 0
0.75 0.140625 0
0.9375 0.140625 0
0.9375 0.09375 0
1.125 0.09375 0
0.9375 0.140625 0
1.125 0.140625 0
0.75 0.140625 0
0.9375 0.140625 0
0.75 0.1875 0
0.9375 0.1875 0
0.9375 0.140625 0
1.125 0.140625 0
0.9375 0.1875 0
1.125 0.1875 0
1.125 0.09375 0
1.3125 0.09375 0
1.125 0.140625 0
1.3125 0.140625 0
1.3125 0.09375 0
1.5 0.09375 0
1.3125 0.140625 0
1.5 0.140625 0
1.125 0.140625 0
1.3125 0.140625 0
1.125 0.1875 0
1.3125 0.1875 0
1.3125 0.140625 0
1.5 0.140625 0
1.3125 0.1875 0
1.5 0.1875 0
0 0.1875 0
0.1875 0.1875 0
0 0.234375 0
0.1875 0.234375 0
0.1875 0.1875 0
0.375 0.1875 0
0.1875 0.234375 0
0.375 0.234375 0
0 0.234375 0
0.1875 0.234375 0
0 0.28125 0
0.1875 0.28125 0
0.1875 0.234375 0
0.375 0.234375 0
0.1875 0.28125 0
0.375 0.28125 0
0.375 0.1875 0
0.5625 0.1875 0
0.375 0.234375 0
0.5625 0.234375 0
0.5625 0.1875 0
0.75 0.1875 0
0.5625 0.234375 0
0.75 0.234375 0
0.375 0.234375 0
0.5625 0.234375 0
0.375 0.28125 0
0.5625 0.28125 0
0.5625 0.234375 0
0.75 0.234375 0
0.5625 0.28125 0
0.75 0.28125 0
0 0.28125 0
0.1875 0.28125 0
0 0.328125 0
0.1875 0.328125 0
0.1875 0.28125 0
0.375 0.28125 0
0.1875 0.328125 0
0.375 0.328125 0
0 0.328125 0
0.1875 0.328125 0
0 0.375 0
0.1875 0.375 0
0.1875 0.328125 0
0.375 0.328125 0
0.1875 0.375 0
0.375 0.375 0
0.375 0.28125 0
0.5625 0.28125 0
0.375 0.328125 0
0.5625 0.328125 0
0.5625 0.28125 0
0.75 0.28125 0
0.5625 0.328125 0
0.75 0.328125 0
0.375 0.328125 0
0.5625 0.328125 0
0.375 0.375 0
0.5625 0.375 0
0.5625 0.328125 0
0.75 0.328125 0
0.5625 0.375 0
0.75 0.375 0
0.75 0.1875 0
0.9375 0.1875 0
0.75 0.234375 0
0.9375 0.234375 0
0.9375 0.1875 0
1.125 0.1875 0
0.9375 0.234375 0
1.125 0.234375 0
0.75 0.234375 0
0.9375 0.234375 0
0.75 0.28125 0
0.9375 0.28125 0
0.9375 0.234375 0
1.125 0.234375 0
0.9375 0.28125 0
1.125 0.28125 0
1.125 0.1875 0
1.3125 0.1875 0
1.125 0.234375 0
1.3125 0.234375 0
1.3125 0.1875 0
1.5 0.1875 0
1.3125 0.234375 0
1.5 0.234375 0
1.125 0.234375 0
1.3125 0.234375 0
1.125 0.28125 0
1.3125 0.28125 0
1.3125 0.234375 0
1.5 0.234375 0
1.3125 0.28125 0
1.5 0.28125 0
0.75 0.28125 0
0.9375 0.28125 0
0.75 0.328125 0
0.9375 0.328125 0
0.9375 0.28125 0
1.125 0.28125 0
0.9375 0.328125 0
1.125 0.328125 0
0.75 0.328125 0
0.9375 0.328125 0
0.75 0.375 0
0.9375 0.375 0
0.9375 0.328125 0
1.125 0.328125 0
0.9375 0.375 0
1.125 0.375 0
1.125 0.28125 0
1.3125 0.28125 0
1.125 0.328125 0
1.3125 0.328125 0
1.3125 0.28125 0
1.5 0.28125 0
1.3125 0.328125 0
1.5 0.328125 0
1.125 0.328125 0
1.3125 0.328125 0
1.125 0.375 0
1.3125 0.375 0
1.3125 0.328125 0
1.5 0.328125 0
1.3125 0.375 0
1.5 0.375 0
1.5 0 0
1.6875 0 0
1.5 0.046875 0
1.6875 0.046875 0
1.6875 0 0
1.875 0 0
1.6875 0.046875 0
1.875 0.046875 0
1.5 0.046875 0
1.6875 0.046875 0
1.5 0.09375 0
1.6875 0.09375 0
1.6875 0.046875 0
1.875 0.046875 0
1.6875 0.09375 0
1.875 0.09375 0
1.875 0 0
2.0625 0 0
1.875 0.046875 0
2.0625 0.046875 0
2.0625 0 0
2.25 0 0
2.0625 0.046875 0
2.25 0.046875 0
1.875 0.046875 0
2.0625 0.046875 0
1.875 0.09375 0
2.0625 0.09375 0
2.0625 0.046875 0
2.25 0.046875 0
2.0625 0.09375 0
2.25 0.09375 0
1.5 0.09375 0
1.6875 0.09375 0
1.5 0.140625 0
1.6875 0.140625 0
1.6875 0.09375 0
1.875 0.09375 0
1.6875 0.140625 0
1.875 0.140625 0
1.5 0.140625 0
1.6875 0.140625 0
1.5 0.1875 0
1.6875 0.1875 0
1.6875 0.140625 0
1.875 0.140625 0
1.6875 0.1875 0
1.875 0.1875 0
1.875 0.09375 0
2.0625 0.09375 0
1.875 0.140625 0
2.0625 0.140625 0
2.0625 0.09375 0
2.25 0.09375 0
2.0625 0.140625 0
2.25 0.140625 0
1.875 0.140625 0
2.0625 0.140625 0
1.875 0.1875 0
2.0625 0.1875 0
2.0625 0.140625 0
2.25 0.140625 0
2.0625 0.1875 0
2.25 0.1875 0
2.25 0 0
2.4375 0 0
2.25 0.046875 0
2.4375 0.046875 0
2.4375 0 0
2.625 0 0
2.4375 0.046875 0
2.625 0.046875 0
2.25 0.046875 0
2.4375 0.046875 0
2.25 0.09375 0
2.4375 0.09375 0
2.4375 0.046875 0
2.625 0.046875 0
2.4375 0.09375 0
2.625 0.09375 0
2.625 0 0
2.8125 0 0
2.625 0.046875 0
2.8125 0.046875 0
2.8125 0 0
3 0 0
2.8125 0.046875 0
3 0.046875 0
2.625 0.046875 0
2.8125 0.046875 0
2.625 0.09375 0
2.8125 0.09375 0
2.8125 0.046875 0
3 0.046875 0
2.8125 0.09375 0
3 0.09375 0
2.25 0.09375 0
2.4375 0.09375 0
2.25 0.140625 0
2.4375 0.140625 0
2.4375 0.09375 0
2.625 0.09375 0
2.4375 0.140625 0
2.625 0.140625 0
2.25 0.140625 0
2.4375 0.140625 0
2.25 0.1875 0
2.4375 0.1875 0
2.4375 0.140625 0
2.625 0.140625 0
2.4375 0.1875 0
2.625 0.1875 0
2.625 0.09375 0
2.8125 0.09375 0
2.625 0.140625 0
2.8125 0.140625 0
2.8125 0.09375 0
3 0.09375 0
2.8125 0.140625 0
3 0.140625 0
2.625 0.140625 0
2.8125 0.140625 0
2.625 0.1875 0
2.8125 0.1875 0
2.8125 0.140625 0
3 0.140625 0
2.8125 0.1875 0
3 0.1875 0
1.5 0.1875 0
1.6875 0.1875 0
1.5 0.234375 0
1.6875 0.234375 0
1.6875 0.1875 0
1.875 0.1875 0
1.6875 0.234375 0
1.875 0.234375 0
1.5 0.234375 0
1.6875 0.234375 0
1.5 0.28125 0
1.6875 0.28125 0
1.6875 0.234375 0
1.875 0.234375 0
1.6875 0.28125 0
1.875 0.28125 0
1.875 0.1875 0
2.0625 0.1875 0
1.875 0.234375 0
2.0625 0.234375 0
2.0625 0.1875 0
2.25 0.1875 0
2.0625 0.234375 0
2.25 0.234375 0
1.875 0.234375 0
2.0625 0.234375 0
1.875 0.28125 0
2.0625 0.28125 0
2.0625 0.234375 0
2.25 0.234375 0
2.0625 0.28125 0
2.25 0.28125 0
1.5 0.28125 0
1.6875 0.28125 0
1.5 0.328125 0
1.6875 0.328125 0
1.6875 0.28125 0
1.875 0.28125 0
1.6875 0.328125 0
1.875 0.328125 0
1.5 0.328125 0
1.6875 0.328125 0
1.5 0.375 0
1.6875 0.375 0
1.6875 0.328125 0
1.875 0.328125 0
1.6875 0.375 0
1.875 0.375 0
1.875 0.28125 0
2.0625 0.28125 0
1.875 0.328125 0
2.0625 0.328125 0
2.0625 0.28125 0
2.25 0.28125 0
2.0625 0.328125 0
2.25 0.328125 0
1.875 0.328125 0
2.0625 0.328125 0
1.875 0.375 0
2.0625 0.375 0
2.0625 0.328125 0
2.25 0.328125 0
2.0625 0.375 0
2.25 0.375 0
2.25 0.1875 0
2.4375 0.1875 0
2.25 0.234375 0
2.4375 0.234375 0
2.4375 0.1875 0
2.625 0.1875 0
2.4375 0.234375 0
2.625 0.234375 0
2.25 0.234375 0
2.4375 0.234375 0
2.25 0.28125 0
2.4375 0.28125 0
2.4375 0.234375 0
2.625 0.234375 0
2.4375 0.28125 0
2.625 0.28125 0
2.625 0.1875 0
2.8125 0.1875 0
2.625 0.234375 0
2.8125 0.234375 0
2.8125 0.1875 0
3 0.1875 0
2.8125 0.234375 0
3 0.234375 0
2.625 0.234375 0
2.8125 0.234375 0
2.625 0.28125 0
2.8125 0.28125 0
2.8125 0.234375 0
3 0.234375 0
2.8125 0.28125 0
3 0.28125 0
2.25 0.28125 0
2.4375 0.28125 0
2.25 0.328125 0
2.4375 0.328125 0
2.4375 0.28125 0
2.625 0.28125 0
2.4375 0.328125 0
2.625 0.328125 0
2.25 0.328125 0
2.4375 0.328125 0
2.25 0.375 0
2.4375 0.375 0
2.4375 0.328125 0
2.625 0.328125 0
2.4375 0.375 0
2.625 0.375 0
2.625 0.28125 0
2.8125 0.28125 0
2.625 0.328125 0
2.8125 0.328125 0
2.8125 0.28125 0
3 0.28125 0
2.8125 0.328125 0
3 0.328125 0
2.625 0.328125 0
2.8125 0.328125 0
2.625 0.375 0
2.8125 0.375 0
2.8125 0.328125 0
3 0.328125 0
2.8125 0.375 0
3 0.375 0
0 0.375 0
0.1875 0.375 0
0 0.421875 0
0.1875 0.421875 0
0.1875 0.375 0
0.375 0.375 0
0.1875 0.421875 0
0.375 0.421875 0
0 0.421875 0
0.1875 0.421875 0
0 0.46875 0
0.1875 0.46875 0
0.1875 0.421875 0
0.375 0.421875 0
0.1875 0.46875 0
0.375 0.46875 0
0.375 0.375 0
0.5625 0.375 0
0.375 0.421875 0
0.5625 0.421875 0
0.5625 0.375 0
0.75 0.375 0
0.5625 0.421875 0
0.75 0.421875 0
0.375 0.421875 0
0.5625 0.421875 0
0.375 0.46875 0
0.5625 0.46875 0
0.5625 0.421875 0
0.75 0.421875 0
0.5625 0.46875 0
0.75 0.46875 0
0 0.46875 0
0.1875 0.46875 0
0 0.515625 0
0.1875 0.515625 0
0.1875 0.46875 0
0.375 0.46875 0
0.1875 0.515625 0
0.375 0.515625 0
0 0.515625 0
0.1875 0.515625 0
0 0.5625 0
0.1875 0.5625 0
0.1875 0.515625 0
0.375 0.515625 0
0.1875 0.5625 0
0.375 0.5625 0
0.375 0.46875 0
0.5625 0.46875 0
0.375 0.515625 0
0.5625 0.515625 0
0.5625 0.46875 0
0.75 0.46875 0
0.5625 0.515625 0
0.75 0.515625 0
0.375 0.515625 0
0.5625 0.515625 0
0.375 0.5625 0
0.5625 0.5625 0
0.5625 0.515625 0
0.75 0.515625 0
0.5625 0.5625 0
0.75 0.5625 0
0.75 0.375 0
0.9375 0.375 0
0.75 0.421875 0
0.9375 0.421875 0
0.9375 0.375 0
1.125 0.375 0
0.9375 0.421875 0
1.125 0.421875 0
0.75 0.421875 0
0.9375 0.421875 0
0.75 0.46875 0
0.9375 0.46875 0
0.9375 0.421875 0
1.125 0.421875 0
0.9375 0.46875 0
1.125 0.46875 0
1.125 0.375 0
1.3125 0.375 0
1.125 0.421875 0
1.3125 0.421875 0
1.3125 0.375 0
1.5 0.375 0
1.3125 0.421875 0
1.5 0.421875 0
1.125 0.421875 0
1.3125 0.421875 0
1.125 0.46875 0
1.3125 0.46875 0
1.3125 0.421875 0
1.5 0.421875 0
1.3125 0.46875 0
1.5 0.46875 0
0.75 0.46875 0
0.9375 0.46875 0
0.75 0.515625 0
0.9375 0.515625 0
0.9375 0.46875 0
1.125 0.46875 0
0.9375 0.515625 0
1.125 0.515625 0
0.75 0.515625 0
0.9375 0.515625 0
[...]
POINT_DATA 16384
SCALARS x_displacement double 1
LOOKUP_TABLE default
0 0.0294699 0 0.0269212 0.0294699 0.0509445 0.0269212 0.0501746 0 0.0269212 0 0.0251207 0.0269212 0.0501746 0.0251207 0.0481766 0.0509445 0.0619015 0.0501746 0.0613753 0.0619015 0.0623264 0.0613753 0.0620892 0.0501746 0.0613753 0.0481766 0.0600504 0.0613753 0.0620892 0.0600504 0.0613499 0 0.0251207 0 0.0235532 0.0251207 0.0481766 0.0235532 0.0452337 0 0.0235532 0 0.0221825 0.0235532 0.0452337 0.0221825 0.042104 0.0481766 0.0600504 0.0452337 0.0578446 0.0600504 0.0613499 0.0578446 0.0601475 0.0452337 0.0578446 0.042104 0.0546166 0.0578446 0.0601475 0.0546166 0.0586184 0.0623264 0.0618558 0.0620892 0.0618587 0.0618558 0.0617722 0.0618587 0.0619048 0.0620892 0.0618587 0.0613499 0.0615999 0.0618587 0.0619048 0.0615999 0.0618607 0.0617722 0.0618869 0.0619048 0.0619836 0.0618869 0.0620384 0.0619836 0.0620622 0.0619048 0.0619836 0.0618607 0.061978 0.0619836 0.0620622 0.061978 0.0620258 0.0613499 0.0615999 0.0601475 0.0611192 0.0615999 0.0618607 0.0611192 0.0616639 0.0601475 0.0611192 0.0586184 0.0604626 0.0611192 0.0616639 0.0604626 0.0613331 0.0618607 0.061978 0.0616639 0.0618745 0.061978 0.0620258 0.0618745 0.0619308 0.0616639 0.0618745 0.0613331 0.0616826 0.0618745 0.0619308 0.0616826 0.0617793 0 0.0221825 0 0.0209883 0.0221825 0.042104 0.0209883 0.0391031 0 0.0209883 0 0.0199099 0.0209883 0.0391031 0.0199099 0.0367201 0.042104 0.0546166 0.0391031 0.0512543 0.0546166 0.0586184 0.0512543 0.0570025 0.0391031 0.0512543 0.0367201 0.0485716 0.0512543 0.0570025 0.0485716 0.0553396 0 0.0199099 0 0.0189874 0.0199099 0.0367201 0.0189874 0.0348268 0 0.0189874 0 0.0182204 0.0189874 0.0348268 0.0182204 0.0333145 0.0367201 0.0485716 0.0348268 0.0464338 0.0485716 0.0553396 0.0464338 0.0537612 0.0348268 0.0464338 0.0333145 0.0446877 0.0464338 0.0537612 0.0446877 0.0523201 0.0586184 0.0604626 0.0570025 0.0596531 0.0604626 0.0613331 0.0596531 0.0608938 0.0570025 0.0596531 0.0553396 0.0587488 0.0596531 0.0608938 0.0587488 0.0603656 0.0613331 0.0616826 0.0608938 0.0614117 0.0616826 0.0617793 0.0614117 0.0615752 0.0608938 0.0614117 0.0603656 0.0610729 0.0614117 0.0615752 0.0610729 0.0613231 0.0553396 0.0587488 0.0537612 0.0577839 0.0587488 0.0603656 0.0577839 0.0597714 0.0537612 0.0577839 0.0523201 0.0568012 0.0577839 0.0597714 0.0568012 0.0591299 0.0603656 0.0610729 0.0597714 0.0606768 0.0610729 0.0613231 0.0606768 0.0610284 0.0597714 0.0606768 0.0591299 0.060235 0.0606768 0.0610284 0.060235 0.0606965 0.0620384 0.0622015 0.0620622 0.0621491 0.0622015 0.062377 0.0621491 0.0622574 0.0620622 0.0621491 0.0620258 0.0620629 0.0621491 0.0622574 0.0620629 0.0621199 0.062377 0.0625624 0.0622574 0.0623881 0.0625624 0.0627507 0.0623881 0.0625337 0.0622574 0.0623881 0.0621199 0.0622054 0.0623881 0.0625337 0.0622054 0.0623137 0.0620258 0.0620629 0.0619308 0.061942 0.0620629 0.0621199 0.061942 0.0619631 0.0619308 0.061942 0.0617793 0.0617867 0.061942 0.0619631 0.0617867 0.0617862 0.0621199 0.0622054 0.0619631 0.0620128 0.0622054 0.0623137 0.0620128 0.0620895 0.0619631 0.0620128 0.0617862 0.0618092 0.0620128 0.0620895 0.0618092 0.0618599 0.0627507 0.062933 0.0625337 0.0626834 0.062933 0.0631018 0.0626834 0.0628276 0.0625337 0.0626834 0.0623137 0.0624339 0.0626834 0.0628276 0.0624339 0.0625551 0.0631018 0.0632521 0.0628276 0.0629596 0.0632521 0.0633816 0.0629596 0.0630756 0.0628276 0.0629596 0.0625551 0.0626694 0.0629596 0.0630756 0.0626694 0.0627721 0.0623137 0.0624339 0.0620895 0.0621833 0.0624339 0.0625551 0.0621833 0.0622833 0.0620895 0.0621833 0.0618599 0.0619307 0.0621833 0.0622833 0.0619307 0.0620115 0.0625551 0.0626694 0.0622833 0.0623809 0.0626694 0.0627721 0.0623809 0.0624706 0.0622833 0.0623809 0.0620115 0.0620935 0.0623809 0.0624706 0.0620935 0.0621707 0.0617793 0.0617867 0.0615752 0.0615979 0.0617867 0.0617862 0.0615979 0.0615889 0.0615752 0.0615979 0.0613231 0.0613773 0.0615979 0.0615889 0.0613773 0.0613715 0.0617862 0.0618092 0.0615889 0.0615939 0.0618092 0.0618599 0.0615939 0.0616241 0.0615889 0.0615939 0.0613715 0.0613665 0.0615939 0.0616241 0.0613665 0.0613816 0.0613231 0.0613773 0.0610284 0.061127 0.0613773 0.0613715 0.061127 0.0611346 0.0610284 0.061127 0.0606965 0.0608496 0.061127 0.0611346 0.0608496 0.0608791 0.0613715 0.0613665 0.0611346 0.0611269 0.0613665 0.0613816 0.0611269 0.0611318 0.0611346 0.0611269 0.0608791 0.0608752 0.0611269 0.0611318 0.0608752 0.0608747 0.0618599 0.0619307 0.0616241 0.0616754 0.0619307 0.0620115 0.0616754 0.061739 0.0616241 0.0616754 0.0613816 0.0614168 0.0616754 0.061739 0.0614168 0.0614652 0.0620115 0.0620935 0.061739 0.0618065 0.0620935 0.0621707 0.0618065 0.061872 0.061739 0.0618065 0.0614652 0.0615195 0.0618065 0.061872 0.0615195 0.0615739 0.0613816 0.0614168 0.0611318 0.0611543 0.0614168 0.0614652 0.0611543 0.0611898 0.0611318 0.0611543 0.0608747 0.0608875 0.0611543 0.0611898 0.0608875 0.0609122 0.0614652 0.0615195 0.0611898 0.0612322 0.0615195 0.0615739 0.0612322 0.0612761 0.0611898 0.0612322 0.0609122 0.060944 0.0612322 0.0612761 0.060944 0.0609784 0 0.0182204 0 0.0175918 0.0182204 0.0333145 0.0175918 0.0320978 0 0.0175918 0 0.0170792 0.0175918 0.0320978 0.0170792 0.0311114 0.0333145 0.0446877 0.0320978 0.0432407 0.0446877 0.0523201 0.0432407 0.0510251 0.0320978 0.0432407 0.0311114 0.0420298 0.0432407 0.0510251 0.0420298 0.0498694 0 0.0170792 0 0.016661 0.0170792 0.0311114 0.016661 0.0303056 0 0.016661 0 0.0163184 0.016661 0.0303056 0.0163184 0.0296421 0.0311114 0.0420298 0.0303056 0.0410084 0.0420298 0.0498694 0.0410084 0.0488413 0.0303056 0.0410084 0.0296421 0.0401413 0.0410084 0.0488413 0.0401413 0.0479275 0.0523201 0.0568012 0.0510251 0.0558345 0.0568012 0.0591299 0.0558345 0.0584591 0.0510251 0.0558345 0.0498694 0.0549055 0.0558345 0.0584591 0.0549055 0.0577756 0.0591299 0.060235 0.0584591 0.0597578 0.060235 0.0606965 0.0597578 0.0603334 0.0584591 0.0597578 0.0577756 0.0592549 0.0597578 0.0603334 0.0592549 0.0599448 0.0498694 0.0549055 0.0488413 0.0540264 0.0549055 0.0577756 0.0540264 0.0570934 0.0488413 0.0540264 0.0479275 0.0532029 0.0540264 0.0570934 0.0532029 0.0564229 0.0577756 0.0592549 0.0570934 0.0587354 0.0592549 0.0599448 0.0587354 0.0595362 0.0570934 0.0587354 0.0564229 0.0582073 0.0587354 0.0595362 0.0582073 0.0591129 0 0.0163184 0 0.0160362 0.0163184 0.0296421 0.0160362 0.0290914 0 0.0160362 0 0.0158018 0.0160362 0.0290914 0.0158018 0.0286305 0.0296421 0.0401413 0.0290914 0.0394006 0.0401413 0.0479275 0.0394006 0.047115 0.0290914 0.0394006 0.0286305 0.038764 0.0394006 0.047115 0.038764 0.0463918 0 0.0158018 0 0.0156056 0.0158018 0.0286305 0.0156056 0.0282416 0 0.0156056 0 0.0154398 0.0156056 0.0282416 0.0154398 0.0279105 0.0286305 0.038764 0.0282416 0.0382137 0.038764 0.0463918 0.0382137 0.0457469 0.0282416 0.0382137 0.0279105 0.0377353 0.0382137 0.0457469 0.0377353 0.0451704 0.0479275 0.0532029 0.047115 0.0524369 0.0532029 0.0564229 0.0524369 0.0557717 0.047115 0.0524369 0.0463918 0.0517275 0.0524369 0.0557717 0.0517275 0.055145 0.0564229 0.0582073 0.0557717 0.0576775 0.0582073 0.0591129 0.0576775 0.0586795 0.0557717 0.0576775 0.055145 0.0571516 0.0576775 0.0586795 0.0571516 0.0582405 0.0463918 0.0517275 0.0457469 0.0510725 0.0517275 0.055145 0.0510725 0.0545459 0.0457469 0.0510725 0.0451704 0.0504688 0.0510725 0.0545459 0.0504688 0.0539762 0.055145 0.0571516 0.0545459 0.056634 0.0571516 0.0582405 0.056634 0.0577996 0.0545459 0.056634 0.0539762 0.0561284 0.056634 0.0577996 0.0561284 0.0573599 0.0606965 0.0608496 0.0603334 0.0605482 0.0608496 0.0608791 0.0605482 0.0606065 0.0603334 0.0605482 0.0599448 0.0602257 0.0605482 0.0606065 0.0602257 0.0603181 0.0608791 0.0608752 0.0606065 0.060612 0.0608752 0.0608747 0.060612 0.0606102 0.0606065 0.060612 0.0603181 0.0603377 0.060612 0.0606102 0.0603377 0.0603383 0.0599448 0.0602257 0.0595362 0.0598853 0.0602257 0.0603181 0.0598853 0.0600156 0.0595362 0.0598853 0.0591129 0.0595302 0.0598853 0.0600156 0.0595302 0.0597007 0.0603181 0.0603377 0.0600156 0.0600531 0.0603377 0.0603383 0.0600531 0.0600593 0.0600156 0.0600531 0.0597007 0.0597591 0.0600531 0.0600593 0.0597591 0.0597735 0.0608747 0.0608875 0.0606102 0.0606163 0.0608875 0.0609122 0.0606163 0.0606321 0.0606102 0.0606163 0.0603383 0.0603405 0.0606163 0.0606321 0.0603405 0.0603493 0.0609122 0.060944 0.0606321 0.0606546 0.060944 0.0609784 0.0606546 0.0606803 0.0606321 0.0606546 0.0603493 0.0603638 0.0606546 0.0606803 0.0603638 0.0603816 0.0603383 0.0603405 0.0600593 0.06006 0.0603405 0.0603493 0.06006 0.0600636 0.0600593 0.06006 0.0597735 0.0597748 0.06006 0.0600636 0.0597748 0.0597749 0.0603493 0.0603638 0.0600636 0.0600714 0.0603638 0.0603816 0.0600714 0.060082 0.0600636 0.0600714 0.0597749 0.0597771 0.0600714 0.060082 0.0597771 0.0597815 0.0591129 0.0595302 0.0586795 0.0591634 0.0595302 0.0597007 0.0591634 0.0593753 0.0586795 0.0591634 0.0582405 0.0587878 0.0591634 0.0593753 0.0587878 0.059041 0.0597007 0.0597591 0.0593753 0.0594565 0.0597591 0.0597735 0.0594565 0.0594813 0.0593753 0.0594565 0.059041 0.0591464 0.0594565 0.0594813 0.0591464 0.0591832 0.0582405 0.0587878 0.0577996 0.058406 0.0587878 0.059041 0.058406 0.0586996 0.0577996 0.058406 0.0573599 0.0580204 0.058406 0.0586996 0.0580204 0.0583527 0.059041 0.0591464 0.0586996 0.0588297 0.0591464 0.0591832 0.0588297 0.0588797 0.0586996 0.0588297 0.0583527 0.0585075 0.0588297 0.0588797 0.0585075 0.0585713 0.0597735 0.0597748 0.0594813 0.0594851 0.0597748 0.0597749 0.0594851 0.0594831 0.0594813 0.0594851 0.0591832 0.059191 0.0594851 0.0594831 0.059191 0.0591882 0.0597749 0.0597771 0.0594831 0.0594808 0.0597771 0.0597815 0.0594808 0.0594797 0.0594831 0.0594808 0.0591882 0.0591824 0.0594808 0.0594797 0.0591824 0.0591766 0.0591832 0.059191 0.0588797 0.0588928 0.059191 0.0591882 0.0588928 0.0588902 0.0588797 0.0588928 0.0585713 0.0585907 0.0588928 0.0588902 0.0585907 0.0585893 0.0591882 0.0591824 0.0588902 0.0588818 0.0591824 0.0591766 0.0588818 0.0588719 0.0588902 0.0588818 0.0585893 0.058579 0.0588818 0.0588719 0.058579 0.0585657 0.0633816 0.0634901 0.0630756 0.0631742 0.0634901 0.0635789 0.0631742 0.0632559 0.0630756 0.0631742 0.0627721 0.0628608 0.0631742 0.0632559 0.0628608 0.0629352 0.0635789 0.06365 0.0632559 0.063322 0.06365 0.0637057 0.063322 0.0633743 0.0632559 0.063322 0.0629352 0.062996 0.063322 0.0633743 0.062996 0.0630446 0.0627721 0.0628608 0.0624706 0.0625495 0.0628608 0.0629352 0.0625495 0.0626164 0.0624706 0.0625495 0.0621707 0.0622399 0.0625495 0.0626164 0.0622399 0.0622994 0.0629352 0.062996 0.0626164 0.0626718 0.062996 0.0630446 0.0626718 0.0627164 0.0626164 0.0626718 0.0622994 0.0623491 0.0626718 0.0627164 0.0623491 0.0623896 0.0637057 0.0637485 0.0633743 0.0634149 0.0637485 0.0637808 0.0634149 0.0634458 0.0633743 0.0634149 0.0630446 0.0630826 0.0634149 0.0634458 0.0630826 0.0631118 0.0637808 0.0638047 0.0634458 0.0634688 0.0638047 0.063822 0.0634688 0.0634856 0.0634458 0.0634688 0.0631118 0.0631338 0.0634688 0.0634856 0.0631338 0.06315 0.0630446 0.0630826 0.0627164 0.0627517 0.0630826 0.0631118 0.0627517 0.0627789 0.0627164 0.0627517 0.0623896 0.0624219 0.0627517 0.0627789 0.0624219 0.062447 0.0631118 0.0631338 0.0627789 0.0627996 0.0631338 0.06315 0.0627996 0.062815 0.0627789 0.0627996 0.062447 0.0624662 0.0627996 0.062815 0.0624662 0.0624806 0.0621707 0.0622399 0.061872 0.0619317 0.0622399 0.0622994 0.0619317 0.0619838 0.061872 0.0619317 0.0615739 0.0616245 0.0619317 0.0619838 0.0616245 0.0616694 0.0622994 0.0623491 0.0619838 0.0620279 0.0623491 0.0623896 0.0620279 0.0620641 0.0619838 0.0620279 0.0616694 0.0617077 0.0620279 0.0620641 0.0617077 0.0617395 0.0615739 0.0616245 0.0612761 0.061318 0.0616245 0.0616694 0.061318 0.0613558 0.0612761 0.061318 0.0609784 0.061012 0.061318 0.0613558 0.061012 0.0610429 0.0616694 0.0617077 0.0613558 0.0613885 0.0617077 0.0617395 0.0613885 0.0614159 0.0613558 0.0613885 0.0610429 0.06107 0.0613885 0.0614159 0.06107 0.061093 0.0623896 0.0624219 0.0620641 0.0620931 0.0624219 0.062447 0.0620931 0.0621159 0.0620641 0.0620931 0.0617395 0.0617653 0.0620931 0.0621159 0.0617653 0.0617857 0.062447 0.0624662 0.0621159 0.0621335 0.0624662 0.0624806 0.0621335 0.0621468 0.0621159 0.0621335 0.0617857 0.0618015 0.0621335 0.0621468 0.0618015 0.0618135 0.0617395 0.0617653 0.0614159 0.0614383 0.0617653 0.0617857 0.0614383 0.0614561 0.0614159 0.0614383 0.061093 0.0611119 0.0614383 0.0614561 0.0611119 0.0611271 0.0617857 0.0618015 0.0614561 0.06147 0.0618015 0.0618135 0.06147 0.0614807 0.0614561 0.06147 0.0611271 0.0611391 0.06147 0.0614807 0.0611391 0.0611483 0.063822 0.0638341 0.0634856 0.0634976 0.0638341 0.0638424 0.0634976 0.0635059 0.0634856 0.0634976 0.06315 0.0631616 0.0634976 0.0635059 0.0631616 0.0631698 0.0638424 0.0638479 0.0635059 0.0635115 0.0638479 0.0638513 0.0635115 0.063515 0.0635059 0.0635115 0.0631698 0.0631753 0.0635115 0.063515 0.0631753 0.063179 0.06315 0.0631616 0.062815 0.0628261 0.0631616 0.0631698 0.0628261 0.062834 0.062815 0.0628261 0.0624806 0.0624911 0.0628261 0.062834 0.0624911 0.0624987 0.0631698 0.0631753 0.062834 0.0628395 0.0631753 0.063179 0.0628395 0.0628431 0.062834 0.0628395 0.0624987 0.0625039 0.0628395 0.0628431 0.0625039 0.0625075 0.0638513 0.0638532 0.063515 0.0635172 0.0638532 0.0638542 0.0635172 0.0635183 0.063515 0.0635172 0.063179 0.0631812 0.0635172 0.0635183 0.0631812 0.0631825 0.0638542 0.0638545 0.0635183 0.0635188 0.0638545 0.0638544 0.0635188 0.0635188 0.0635183 0.0635188 0.0631825 0.0631831 0.0635188 0.0635188 0.0631831 0.0631832 0.063179 0.0631812 0.0628431 0.0628454 0.0631812 0.0631825 0.0628454 0.0628468 0.0628431 0.0628454 0.0625075 0.0625098 0.0628454 0.0628468 0.0625098 0.0625111 0.0631825 0.0631831 0.0628468 0.0628475 0.0631831 0.0631832 0.0628475 0.0628477 0.0628468 0.0628475 0.0625111 0.0625119 0.0628475 0.0628477 0.0625119 0.0625122 0.0624806 0.0624911 0.0621468 0.0621566 0.0624911 0.0624987 0.0621566 0.0621636 0.0621468 0.0621566 0.0618135 0.0618224 0.0621566 0.0621636 0.0618224 0.0618289 0.0624987 0.0625039 0.0621636 0.0621686 0.0625039 0.0625075 0.0621686 0.062172 0.0621636 0.0621686 0.0618289 0.0618335 0.0621686 0.062172 0.0618335 0.0618367 0.0618135 0.0618224 0.0614807 0.0614886 0.0618224 0.0618289 0.0614886 0.0614945 0.0614807 0.0614886 0.0611483 0.0611552 0.0614886 0.0614945 0.0611552 0.0611603 0.0618289 0.0618335 0.0614945 0.0614987 0.0618335 0.0618367 0.0614987 0.0615016 0.0614945 0.0614987 0.0611603 0.061164 0.0614987 0.0615016 0.061164 0.0611666 0.0625075 0.0625098 0.062172 0.0621742 0.0625098 0.0625111 0.0621742 0.0621756 0.062172 0.0621742 0.0618367 0.0618388 0.0621742 0.0621756 0.0618388 0.0618402 0.0625111 0.0625119 0.0621756 0.0621764 0.0625119 0.0625122 0.0621764 0.0621768 0.0621756 0.0621764 0.0618402 0.061841 0.0621764 0.0621768 0.061841 0.0618414 0.0618367 0.0618388 0.0615016 0.0615036 0.0618388 0.0618402 0.0615036 0.0615048 0.0615016 0.0615036 0.0611666 0.0611684 0.0615036 0.0615048 0.0611684 0.0611696 0.0618402 0.061841 0.0615048 0.0615056 0.061841 0.0618414 0.0615056 0.061506 0.0615048 0.0615056 0.0611696 0.0611703 0.0615056 0.061506 0.0611703 0.0611707 0.0609784 0.061012 0.0606803 0.0607062 0.061012 0.0610429 0.0607062 0.0607305 0.0606803 0.0607062 0.0603816 0.0604003 0.0607062 0.0607305 0.0604003 0.0604183 0.0610429 0.06107 0.0607305 0.0607521 0.06107 0.061093 0.0607521 0.0607707 0.0607305 0.0607521 0.0604183 0.0604346 0.0607521 0.0607707 0.0604346 0.0604488 0.0603816 0.0604003 0.060082 0.060094 0.0604003 0.0604183 0.060094 0.0601061 0.060082 0.060094 0.0597815 0.0597873 0.060094 0.0601061 0.0597873 0.0597937 0.0604183 0.0604346 0.0601061 0.0601173 0.0604346 0.0604488 0.0601173 0.0601273 0.0601061 0.0601173 0.0597937 0.0598001 0.0601173 0.0601273 0.0598001 0.0598059 0.061093 0.0611119 0.0607707 0.0607861 0.0611119 0.0611271 0.0607861 0.0607986 0.0607707 0.0607861 0.0604488 0.0604608 0.0607861 0.0607986 0.0604608 0.0604706 0.0611271 0.0611391 0.0607986 0.0608085 0.0611391 0.0611483 0.0608085 0.0608162 0.0607986 0.0608085 0.0604706 0.0604784 0.0608085 0.0608162 0.0604784 0.0604845 0.0604488 0.0604608 0.0601273 0.0601358 0.0604608 0.0604706 0.0601358 0.0601429 0.0601273 0.0601358 0.0598059 0.059811 0.0601358 0.0601429 0.059811 0.0598154 0.0604706 0.0604784 0.0601429 0.0601486 0.0604784 0.0604845 0.0601486 0.0601531 0.0601429 0.0601486 0.0598154 0.059819 0.0601486 0.0601531 0.059819 0.0598219 0.0597815 0.0597873 0.0594797 0.0594799 0.0597873 0.0597937 0.0594799 0.0594811 0.0594797 0.0594799 0.0591766 0.0591717 0.0594799 0.0594811 0.0591717 0.0591679 0.0597937 0.0598001 0.0594811 0.0594827 0.0598001 0.0598059 0.0594827 0.0594846 0.0594811 0.0594827 0.0591679 0.0591652 0.0594827 0.0594846 0.0591652 0.0591632 0.0591766 0.0591717 0.0588719 0.0588625 0.0591717 0.0591679 0.0588625 0.0588542 0.0588719 0.0588625 0.0585657 0.0585522 0.0588625 0.0588542 0.0585522 0.0585397 0.0591679 0.0591652 0.0588542 0.0588473 0.0591652 0.0591632 0.0588473 0.0588416 0.0588542 0.0588473 0.0585397 0.0585289 0.0588473 0.0588416 0.0585289 0.0585198 0.0598059 0.059811 0.0594846 0.0594864 0.059811 0.0598154 0.0594864 0.0594881 0.0594846 0.0594864 0.0591632 0.0591618 0.0594864 0.0594881 0.0591618 0.0591609 0.0598154 0.059819 0.0594881 0.0594896 0.059819 0.0598219 0.0594896 0.0594908 0.0594881 0.0594896 0.0591609 0.0591603 0.0594896 0.0594908 0.0591603 0.0591599 0.0591632 0.0591618 0.0588416 0.0588371 0.0591618 0.0591609 0.0588371 0.0588337 0.0588416 0.0588371 0.0585198 0.0585123 0.0588371 0.0588337 0.0585123 0.0585064 0.0591609 0.0591603 0.0588337 0.058831 0.0591603 0.0591599 0.058831 0.058829 0.0588337 0.058831 0.0585064 0.0585017 0.058831 0.058829 0.0585017 0.0584982 0.0611483 0.0611552 0.0608162 0.0608221 0.0611552 0.0611603 0.0608221 0.0608264 0.0608162 0.0608221 0.0604845 0.0604892 0.0608221 0.0608264 0.0604892 0.0604927 0.0611603 0.061164 0.0608264 0.0608296 0.061164 0.0611666 0.0608296 0.0608318 0.0608264 0.0608296 0.0604927 0.0604953 0.0608296 0.0608318 0.0604953 0.0604971 0.0604845 0.0604892 0.0601531 0.0601566 0.0604892 0.0604927 0.0601566 0.0601592 0.0601531 0.0601566 0.0598219 0.0598241 0.0601566 0.0601592 0.0598241 0.0598259 0.0604927 0.0604953 0.0601592 0.0601612 0.0604953 0.0604971 0.0601612 0.0601626 0.0601592 0.0601612 0.0598259 0.0598272 0.0601612 0.0601626 0.0598272 0.0598281 0.0611666 0.0611684 0.0608318 0.0608334 0.0611684 0.0611696 0.0608334 0.0608344 0.0608318 0.0608334 0.0604971 0.0604984 0.0608334 0.0608344 0.0604984 0.0604993 0.0611696 0.0611703 0.0608344 0.060835 0.0611703 0.0611707 0.060835 0.0608354 0.0608344 0.060835 0.0604993 0.0604999 0.060835 0.0608354 0.0604999 0.0605002 0.0604971 0.0604984 0.0601626 0.0601636 0.0604984 0.0604993 0.0601636 0.0601643 0.0601626 0.0601636 0.0598281 0.0598288 0.0601636 0.0601643 0.0598288 0.0598293 0.0604993 0.0604999 0.0601643 0.0601647 0.0604999 0.0605002 0.0601647 0.060165 0.0601643 0.0601647 0.0598293 0.0598296 0.0601647 0.060165 0.0598296 0.0598298 0.0598219 0.0598241 0.0594908 0.0594918 0.0598241 0.0598259 0.0594918 0.0594926 0.0594908 0.0594918 0.0591599 0.0591596 0.0594918 0.0594926 0.0591596 0.0591595 0.0598259 0.0598272 0.0594926 0.0594933 0.0598272 0.0598281 0.0594933 0.0594938 0.0594926 0.0594933 0.0591595 0.0591595 0.0594933 0.0594938 0.0591595 0.0591595 0.0591599 0.0591596 0.058829 0.0588275 0.0591596 0.0591595 0.0588275 0.0588265 0.058829 0.0588275 0.0584982 0.0584955 0.0588275 0.0588265 0.0584955 0.0584935 0.0591595 0.0591595 0.0588265 0.0588257 0.0591595 0.0591595 0.0588257 0.0588252 0.0588265 0.0588257 0.0584935 0.0584921 0.0588257 0.0588252 0.0584921 0.058491 0.0598281 0.0598288 0.0594938 0.0594941 0.0598288 0.0598293 0.0594941 0.0594944 0.0594938 0.0594941 0.0591595 0.0591595 0.0594941 0.0594944 0.0591595 0.0591595 0.0598293 0.0598296 0.0594944 0.0594946 0.0598296 0.0598298 0.0594946 0.0594947 0.0594944 0.0594946 0.0591595 0.0591595 0.0594946 0.0594947 0.0591595 0.0591596 0.0591595 0.0591595 0.0588252 0.0588249 0.0591595 0.0591595 0.0588249 0.0588247 0.0588252 0.0588249 0.058491 0.0584904 0.0588249 0.0588247 0.0584904 0.0584899 0.0591595 0.0591595 0.0588247 0.0588246 0.0591595 0.0591596 0.05