# vtk DataFile Version 3.0
#This file was generated by the deal.II library on 2022/1/6 at 22:57:38
ASCII
DATASET UNSTRUCTURED_GRID

POINTS 16384 double
0 0 0
0.1875 0 0
0 0.046875 0
0.1875 0.046875 0
0.1875 0 0
0.375 0 0
0.1875 0.046875 0
0.375 0.046875 0
0 0.046875 0
0.1875 0.046875 0
0 0.09375 0
0.1875 0.09375 0
0.1875 0.046875 0
0.375 0.046875 0
0.1875 0.09375 0
0.375 0.09375 0
0.375 0 0
0.5625 0 0
0.375 0.046875 0
0.5625 0.046875 0
0.5625 0 0
0.75 0 0
0.5625 0.046875 0
0.75 0.046875 0
0.375 0.046875 0
0.5625 0.046875 0
0.375 0.09375 0
0.5625 0.09375 0
0.5625 0.046875 0
0.75 0.046875 0
0.5625 0.09375 0
0.75 0.09375 0
0 0.09375 0
0.1875 0.09375 0
0 0.140625 0
0.1875 0.140625 0
0.1875 0.09375 0
0.375 0.09375 0
0.1875 0.140625 0
0.375 0.140625 0
0 0.140625 0
0.1875 0.140625 0
0 0.1875 0
0.1875 0.1875 0
0.1875 0.140625 0
0.375 0.140625 0
0.1875 0.1875 0
0.375 0.1875 0
0.375 0.09375 0
0.5625 0.09375 0
0.375 0.140625 0
0.5625 0.140625 0
0.5625 0.09375 0
0.75 0.09375 0
0.5625 0.140625 0
0.75 0.140625 0
0.375 0.140625 0
0.5625 0.140625 0
0.375 0.1875 0
0.5625 0.1875 0
0.5625 0.140625 0
0.75 0.140625 0
0.5625 0.1875 0
0.75 0.1875 0
0.75 0 0
0.9375 0 0
0.75 0.046875 0
0.9375 0.046875 0
0.9375 0 0
1.125 0 0
0.9375 0.046875 0
1.125 0.046875 0
0.75 0.046875 0
0.9375 0.046875 0
0.75 0.09375 0
0.9375 0.09375 0
0.9375 0.046875 0
1.125 0.046875 0
0.9375 0.09375 0
1.125 0.09375 0
1.125 0 0
1.3125 0 0
1.125 0.046875 0
1.3125 0.046875 0
1.3125 0 0
1.5 0 0
1.3125 0.046875 0
1.5 0.046875 0
1.125 0.046875 0
1.3125 0.046875 0
1.125 0.09375 0
1.3125 0.09375 0
1.3125 0.046875 0
1.5 0.046875 0
1.3125 0.09375 0
1.5 0.09375 0
0.75 0.09375 0
0.9375 0.09375 0
0.75 0.140625 0
0.9375 0.140625 0
0.9375 0.09375 0
1.125 0.09375 0
0.9375 0.140625 0
1.125 0.140625 0
0.75 0.140625 0
0.9375 0.140625 0
0.75 0.1875 0
0.9375 0.1875 0
0.9375 0.140625 0
1.125 0.140625 0
0.9375 0.1875 0
1.125 0.1875 0
1.125 0.09375 0
1.3125 0.09375 0
1.125 0.140625 0
1.3125 0.140625 0
1.3125 0.09375 0
1.5 0.09375 0
1.3125 0.140625 0
1.5 0.140625 0
1.125 0.140625 0
1.3125 0.140625 0
1.125 0.1875 0
1.3125 0.1875 0
1.3125 0.140625 0
1.5 0.140625 0
1.3125 0.1875 0
1.5 0.1875 0
0 0.1875 0
0.1875 0.1875 0
0 0.234375 0
0.1875 0.234375 0
0.1875 0.1875 0
0.375 0.1875 0
0.1875 0.234375 0
0.375 0.234375 0
0 0.234375 0
0.1875 0.234375 0
0 0.28125 0
0.1875 0.28125 0
0.1875 0.234375 0
0.375 0.234375 0
0.1875 0.28125 0
0.375 0.28125 0
0.375 0.1875 0
0.5625 0.1875 0
0.375 0.234375 0
0.5625 0.234375 0
0.5625 0.1875 0
0.75 0.1875 0
0.5625 0.234375 0
0.75 0.234375 0
0.375 0.234375 0
0.5625 0.234375 0
0.375 0.28125 0
0.5625 0.28125 0
0.5625 0.234375 0
0.75 0.234375 0
0.5625 0.28125 0
0.75 0.28125 0
0 0.28125 0
0.1875 0.28125 0
0 0.328125 0
0.1875 0.328125 0
0.1875 0.28125 0
0.375 0.28125 0
0.1875 0.328125 0
0.375 0.328125 0
0 0.328125 0
0.1875 0.328125 0
0 0.375 0
0.1875 0.375 0
0.1875 0.328125 0
0.375 0.328125 0
0.1875 0.375 0
0.375 0.375 0
0.375 0.28125 0
0.5625 0.28125 0
0.375 0.328125 0
0.5625 0.328125 0
0.5625 0.28125 0
0.75 0.28125 0
0.5625 0.328125 0
0.75 0.328125 0
0.375 0.328125 0
0.5625 0.328125 0
0.375 0.375 0
0.5625 0.375 0
0.5625 0.328125 0
0.75 0.328125 0
0.5625 0.375 0
0.75 0.375 0
0.75 0.1875 0
0.9375 0.1875 0
0.75 0.234375 0
0.9375 0.234375 0
0.9375 0.1875 0
1.125 0.1875 0
0.9375 0.234375 0
1.125 0.234375 0
0.75 0.234375 0
0.9375 0.234375 0
0.75 0.28125 0
0.9375 0.28125 0
0.9375 0.234375 0
1.125 0.234375 0
0.9375 0.28125 0
1.125 0.28125 0
1.125 0.1875 0
1.3125 0.1875 0
1.125 0.234375 0
1.3125 0.234375 0
1.3125 0.1875 0
1.5 0.1875 0
1.3125 0.234375 0
1.5 0.234375 0
1.125 0.234375 0
1.3125 0.234375 0
1.125 0.28125 0
1.3125 0.28125 0
1.3125 0.234375 0
1.5 0.234375 0
1.3125 0.28125 0
1.5 0.28125 0
0.75 0.28125 0
0.9375 0.28125 0
0.75 0.328125 0
0.9375 0.328125 0
0.9375 0.28125 0
1.125 0.28125 0
0.9375 0.328125 0
1.125 0.328125 0
0.75 0.328125 0
0.9375 0.328125 0
0.75 0.375 0
0.9375 0.375 0
0.9375 0.328125 0
1.125 0.328125 0
0.9375 0.375 0
1.125 0.375 0
1.125 0.28125 0
1.3125 0.28125 0
1.125 0.328125 0
1.3125 0.328125 0
1.3125 0.28125 0
1.5 0.28125 0
1.3125 0.328125 0
1.5 0.328125 0
1.125 0.328125 0
1.3125 0.328125 0
1.125 0.375 0
1.3125 0.375 0
1.3125 0.328125 0
1.5 0.328125 0
1.3125 0.375 0
1.5 0.375 0
1.5 0 0
1.6875 0 0
1.5 0.046875 0
1.6875 0.046875 0
1.6875 0 0
1.875 0 0
1.6875 0.046875 0
1.875 0.046875 0
1.5 0.046875 0
1.6875 0.046875 0
1.5 0.09375 0
1.6875 0.09375 0
1.6875 0.046875 0
1.875 0.046875 0
1.6875 0.09375 0
1.875 0.09375 0
1.875 0 0
2.0625 0 0
1.875 0.046875 0
2.0625 0.046875 0
2.0625 0 0
2.25 0 0
2.0625 0.046875 0
2.25 0.046875 0
1.875 0.046875 0
2.0625 0.046875 0
1.875 0.09375 0
2.0625 0.09375 0
2.0625 0.046875 0
2.25 0.046875 0
2.0625 0.09375 0
2.25 0.09375 0
1.5 0.09375 0
1.6875 0.09375 0
1.5 0.140625 0
1.6875 0.140625 0
1.6875 0.09375 0
1.875 0.09375 0
1.6875 0.140625 0
1.875 0.140625 0
1.5 0.140625 0
1.6875 0.140625 0
1.5 0.1875 0
1.6875 0.1875 0
1.6875 0.140625 0
1.875 0.140625 0
1.6875 0.1875 0
1.875 0.1875 0
1.875 0.09375 0
2.0625 0.09375 0
1.875 0.140625 0
2.0625 0.140625 0
2.0625 0.09375 0
2.25 0.09375 0
2.0625 0.140625 0
2.25 0.140625 0
1.875 0.140625 0
2.0625 0.140625 0
1.875 0.1875 0
2.0625 0.1875 0
2.0625 0.140625 0
2.25 0.140625 0
2.0625 0.1875 0
2.25 0.1875 0
2.25 0 0
2.4375 0 0
2.25 0.046875 0
2.4375 0.046875 0
2.4375 0 0
2.625 0 0
2.4375 0.046875 0
2.625 0.046875 0
2.25 0.046875 0
2.4375 0.046875 0
2.25 0.09375 0
2.4375 0.09375 0
2.4375 0.046875 0
2.625 0.046875 0
2.4375 0.09375 0
2.625 0.09375 0
2.625 0 0
2.8125 0 0
2.625 0.046875 0
2.8125 0.046875 0
2.8125 0 0
3 0 0
2.8125 0.046875 0
3 0.046875 0
2.625 0.046875 0
2.8125 0.046875 0
2.625 0.09375 0
2.8125 0.09375 0
2.8125 0.046875 0
3 0.046875 0
2.8125 0.09375 0
3 0.09375 0
2.25 0.09375 0
2.4375 0.09375 0
2.25 0.140625 0
2.4375 0.140625 0
2.4375 0.09375 0
2.625 0.09375 0
2.4375 0.140625 0
2.625 0.140625 0
2.25 0.140625 0
2.4375 0.140625 0
2.25 0.1875 0
2.4375 0.1875 0
2.4375 0.140625 0
2.625 0.140625 0
2.4375 0.1875 0
2.625 0.1875 0
2.625 0.09375 0
2.8125 0.09375 0
2.625 0.140625 0
2.8125 0.140625 0
2.8125 0.09375 0
3 0.09375 0
2.8125 0.140625 0
3 0.140625 0
2.625 0.140625 0
2.8125 0.140625 0
2.625 0.1875 0
2.8125 0.1875 0
2.8125 0.140625 0
3 0.140625 0
2.8125 0.1875 0
3 0.1875 0
1.5 0.1875 0
1.6875 0.1875 0
1.5 0.234375 0
1.6875 0.234375 0
1.6875 0.1875 0
1.875 0.1875 0
1.6875 0.234375 0
1.875 0.234375 0
1.5 0.234375 0
1.6875 0.234375 0
1.5 0.28125 0
1.6875 0.28125 0
1.6875 0.234375 0
1.875 0.234375 0
1.6875 0.28125 0
1.875 0.28125 0
1.875 0.1875 0
2.0625 0.1875 0
1.875 0.234375 0
2.0625 0.234375 0
2.0625 0.1875 0
2.25 0.1875 0
2.0625 0.234375 0
2.25 0.234375 0
1.875 0.234375 0
2.0625 0.234375 0
1.875 0.28125 0
2.0625 0.28125 0
2.0625 0.234375 0
2.25 0.234375 0
2.0625 0.28125 0
2.25 0.28125 0
1.5 0.28125 0
1.6875 0.28125 0
1.5 0.328125 0
1.6875 0.328125 0
1.6875 0.28125 0
1.875 0.28125 0
1.6875 0.328125 0
1.875 0.328125 0
1.5 0.328125 0
1.6875 0.328125 0
1.5 0.375 0
1.6875 0.375 0
1.6875 0.328125 0
1.875 0.328125 0
1.6875 0.375 0
1.875 0.375 0
1.875 0.28125 0
2.0625 0.28125 0
1.875 0.328125 0
2.0625 0.328125 0
2.0625 0.28125 0
2.25 0.28125 0
2.0625 0.328125 0
2.25 0.328125 0
1.875 0.328125 0
2.0625 0.328125 0
1.875 0.375 0
2.0625 0.375 0
2.0625 0.328125 0
2.25 0.328125 0
2.0625 0.375 0
2.25 0.375 0
2.25 0.1875 0
2.4375 0.1875 0
2.25 0.234375 0
2.4375 0.234375 0
2.4375 0.1875 0
2.625 0.1875 0
2.4375 0.234375 0
2.625 0.234375 0
2.25 0.234375 0
2.4375 0.234375 0
2.25 0.28125 0
2.4375 0.28125 0
2.4375 0.234375 0
2.625 0.234375 0
2.4375 0.28125 0
2.625 0.28125 0
2.625 0.1875 0
2.8125 0.1875 0
2.625 0.234375 0
2.8125 0.234375 0
2.8125 0.1875 0
3 0.1875 0
2.8125 0.234375 0
3 0.234375 0
2.625 0.234375 0
2.8125 0.234375 0
2.625 0.28125 0
2.8125 0.28125 0
2.8125 0.234375 0
3 0.234375 0
2.8125 0.28125 0
3 0.28125 0
2.25 0.28125 0
2.4375 0.28125 0
2.25 0.328125 0
2.4375 0.328125 0
2.4375 0.28125 0
2.625 0.28125 0
2.4375 0.328125 0
2.625 0.328125 0
2.25 0.328125 0
2.4375 0.328125 0
2.25 0.375 0
2.4375 0.375 0
2.4375 0.328125 0
2.625 0.328125 0
2.4375 0.375 0
2.625 0.375 0
2.625 0.28125 0
2.8125 0.28125 0
2.625 0.328125 0
2.8125 0.328125 0
2.8125 0.28125 0
3 0.28125 0
2.8125 0.328125 0
3 0.328125 0
2.625 0.328125 0
2.8125 0.328125 0
2.625 0.375 0
2.8125 0.375 0
2.8125 0.328125 0
3 0.328125 0
2.8125 0.375 0
3 0.375 0
0 0.375 0
0.1875 0.375 0
0 0.421875 0
0.1875 0.421875 0
0.1875 0.375 0
0.375 0.375 0
0.1875 0.421875 0
0.375 0.421875 0
0 0.421875 0
0.1875 0.421875 0
0 0.46875 0
0.1875 0.46875 0
0.1875 0.421875 0
0.375 0.421875 0
0.1875 0.46875 0
0.375 0.46875 0
0.375 0.375 0
0.5625 0.375 0
0.375 0.421875 0
0.5625 0.421875 0
0.5625 0.375 0
0.75 0.375 0
0.5625 0.421875 0
0.75 0.421875 0
0.375 0.421875 0
0.5625 0.421875 0
0.375 0.46875 0
0.5625 0.46875 0
0.5625 0.421875 0
0.75 0.421875 0
0.5625 0.46875 0
0.75 0.46875 0
0 0.46875 0
0.1875 0.46875 0
0 0.515625 0
0.1875 0.515625 0
0.1875 0.46875 0
0.375 0.46875 0
0.1875 0.515625 0
0.375 0.515625 0
0 0.515625 0
0.1875 0.515625 0
0 0.5625 0
0.1875 0.5625 0
0.1875 0.515625 0
0.375 0.515625 0
0.1875 0.5625 0
0.375 0.5625 0
0.375 0.46875 0
0.5625 0.46875 0
0.375 0.515625 0
0.5625 0.515625 0
0.5625 0.46875 0
0.75 0.46875 0
0.5625 0.515625 0
0.75 0.515625 0
0.375 0.515625 0
0.5625 0.515625 0
0.375 0.5625 0
0.5625 0.5625 0
0.5625 0.515625 0
0.75 0.515625 0
0.5625 0.5625 0
0.75 0.5625 0
0.75 0.375 0
0.9375 0.375 0
0.75 0.421875 0
0.9375 0.421875 0
0.9375 0.375 0
1.125 0.375 0
0.9375 0.421875 0
1.125 0.421875 0
0.75 0.421875 0
0.9375 0.421875 0
0.75 0.46875 0
0.9375 0.46875 0
0.9375 0.421875 0
1.125 0.421875 0
0.9375 0.46875 0
1.125 0.46875 0
1.125 0.375 0
1.3125 0.375 0
1.125 0.421875 0
1.3125 0.421875 0
1.3125 0.375 0
1.5 0.375 0
1.3125 0.421875 0
1.5 0.421875 0
1.125 0.421875 0
1.3125 0.421875 0
1.125 0.46875 0
1.3125 0.46875 0
1.3125 0.421875 0
1.5 0.421875 0
1.3125 0.46875 0
1.5 0.46875 0
0.75 0.46875 0
0.9375 0.46875 0
0.75 0.515625 0
0.9375 0.515625 0
0.9375 0.46875 0
1.125 0.46875 0
0.9375 0.515625 0
1.125 0.515625 0
0.75 0.515625 0
0.9375 0.515625 0
[...]
POINT_DATA 16384
SCALARS x_displacement double 1
LOOKUP_TABLE default
0 0.0336657 0 0.0300933 0.0336657 0.0594047 0.0300933 0.0577252 0 0.0300933 0 0.0276431 0.0300933 0.0577252 0.0276431 0.054948 0.0594047 0.0756012 0.0577252 0.0742875 0.0756012 0.0820828 0.0742875 0.0812645 0.0577252 0.0742875 0.054948 0.0722891 0.0742875 0.0812645 0.0722891 0.0800061 0 0.0276431 0 0.0256334 0.0276431 0.054948 0.0256334 0.0513793 0 0.0256334 0 0.0239476 0.0256334 0.0513793 0.0239476 0.0477567 0.054948 0.0722891 0.0513793 0.0695042 0.0722891 0.0800061 0.0695042 0.0783456 0.0513793 0.0695042 0.0477567 0.0657847 0.0695042 0.0783456 0.0657847 0.0764146 0.0820828 0.0882023 0.0812645 0.0878486 0.0882023 0.0949191 0.0878486 0.0949096 0.0812645 0.0878486 0.0800061 0.0872589 0.0878486 0.0949096 0.0872589 0.0947191 0.0949191 0.101758 0.0949096 0.101896 0.101758 0.108336 0.101896 0.108543 0.0949096 0.101896 0.0947191 0.101906 0.101896 0.108543 0.101906 0.108653 0.0800061 0.0872589 0.0783456 0.0864734 0.0872589 0.0947191 0.0864734 0.0943759 0.0783456 0.0864734 0.0764146 0.085539 0.0864734 0.0943759 0.085539 0.0939017 0.0947191 0.101906 0.0943759 0.1018 0.101906 0.108653 0.1018 0.108674 0.0943759 0.1018 0.0939017 0.101591 0.1018 0.108674 0.101591 0.108612 0 0.0239476 0 0.0225221 0.0239476 0.0477567 0.0225221 0.0443697 0 0.0225221 0 0.0212705 0.0225221 0.0443697 0.0212705 0.0416846 0.0477567 0.0657847 0.0443697 0.062011 0.0657847 0.0764146 0.062011 0.0744483 0.0443697 0.062011 0.0416846 0.0589874 0.062011 0.0744483 0.0589874 0.0724825 0 0.0212705 0 0.0202165 0.0212705 0.0416846 0.0202165 0.0395544 0 0.0202165 0 0.0193489 0.0202165 0.0395544 0.0193489 0.0378565 0.0416846 0.0589874 0.0395544 0.0565692 0.0589874 0.0724825 0.0565692 0.070644 0.0395544 0.0565692 0.0378565 0.0545939 0.0565692 0.070644 0.0545939 0.0689816 0.0764146 0.085539 0.0744483 0.0844785 0.085539 0.0939017 0.0844785 0.0933242 0.0744483 0.0844785 0.0724825 0.0833489 0.0844785 0.0933242 0.0833489 0.0926649 0.0939017 0.101591 0.0933242 0.101292 0.101591 0.108612 0.101292 0.108476 0.0933242 0.101292 0.0926649 0.100917 0.101292 0.108476 0.100917 0.108274 0.0724825 0.0833489 0.070644 0.0821835 0.0833489 0.0926649 0.0821835 0.0919478 0.070644 0.0821835 0.0689816 0.0810235 0.0821835 0.0919478 0.0810235 0.0911923 0.0926649 0.100917 0.0919478 0.10048 0.100917 0.108274 0.10048 0.108015 0.0919478 0.10048 0.0911923 0.099994 0.10048 0.108015 0.099994 0.107707 0.108336 0.114483 0.108543 0.114714 0.114483 0.120122 0.114714 0.120347 0.108543 0.114714 0.108653 0.114869 0.114714 0.120347 0.114869 0.120513 0.120122 0.125222 0.120347 0.125422 0.125222 0.129779 0.125422 0.129942 0.120347 0.125422 0.120513 0.125575 0.125422 0.129942 0.125575 0.130069 0.108653 0.114869 0.108674 0.114953 0.114869 0.120513 0.114953 0.120621 0.108674 0.114953 0.108612 0.114971 0.114953 0.120621 0.114971 0.120676 0.120513 0.125575 0.120621 0.125683 0.125575 0.130069 0.125683 0.130159 0.120621 0.125683 0.120676 0.125747 0.125683 0.130159 0.125747 0.130215 0.129779 0.133808 0.129942 0.133928 0.133808 0.137337 0.133928 0.13741 0.129942 0.133928 0.130069 0.134019 0.133928 0.13741 0.134019 0.137461 0.137337 0.140398 0.13741 0.140423 0.140398 0.143031 0.140423 0.14301 0.13741 0.140423 0.137461 0.140433 0.140423 0.14301 0.140433 0.142978 0.130069 0.134019 0.130159 0.134082 0.134019 0.137461 0.134082 0.13749 0.130159 0.134082 0.130215 0.134118 0.134082 0.13749 0.134118 0.137498 0.137461 0.140433 0.13749 0.140425 0.140433 0.142978 0.140425 0.142933 0.13749 0.140425 0.137498 0.140402 0.140425 0.142933 0.140402 0.142876 0.108612 0.114971 0.108476 0.114927 0.114971 0.120676 0.114927 0.12068 0.108476 0.114927 0.108274 0.114828 0.114927 0.12068 0.114828 0.120638 0.120676 0.125747 0.12068 0.12577 0.125747 0.130215 0.12577 0.130238 0.12068 0.12577 0.120638 0.125755 0.12577 0.130238 0.125755 0.130229 0.108274 0.114828 0.108015 0.114678 0.114828 0.120638 0.114678 0.120553 0.108015 0.114678 0.107707 0.114484 0.114678 0.120553 0.114484 0.120428 0.120638 0.125755 0.120553 0.125703 0.125755 0.130229 0.125703 0.130189 0.120553 0.125703 0.120428 0.125618 0.125703 0.130189 0.125618 0.130121 0.130215 0.134118 0.130238 0.134127 0.134118 0.137498 0.134127 0.137485 0.130238 0.134127 0.130229 0.13411 0.134127 0.137485 0.13411 0.137451 0.137498 0.140402 0.137485 0.140362 0.140402 0.142876 0.140362 0.142807 0.137485 0.140362 0.137451 0.140306 0.140362 0.142807 0.140306 0.142725 0.130229 0.13411 0.130189 0.134068 0.13411 0.137451 0.134068 0.137398 0.130189 0.134068 0.130121 0.134003 0.134068 0.137398 0.134003 0.137324 0.137451 0.140306 0.137398 0.140233 0.140306 0.142725 0.140233 0.14263 0.137398 0.140233 0.137324 0.140145 0.140233 0.14263 0.140145 0.142523 0 0.0193489 0 0.0186426 0.0193489 0.0378565 0.0186426 0.036494 0 0.0186426 0 0.0180699 0.0186426 0.036494 0.0180699 0.0353934 0.0378565 0.0545939 0.036494 0.0529604 0.0545939 0.0689816 0.0529604 0.0674992 0.036494 0.0529604 0.0353934 0.0515983 0.0529604 0.0674992 0.0515983 0.066186 0 0.0180699 0 0.0176053 0.0180699 0.0353934 0.0176053 0.0344982 0 0.0176053 0 0.0172268 0.0176053 0.0344982 0.0172268 0.0337649 0.0353934 0.0515983 0.0344982 0.050455 0.0515983 0.066186 0.050455 0.065026 0.0344982 0.050455 0.0337649 0.04949 0.050455 0.065026 0.04949 0.0640026 0.0689816 0.0810235 0.0674992 0.0799011 0.0810235 0.0911923 0.0799011 0.0904167 0.0674992 0.0799011 0.066186 0.0788363 0.0799011 0.0904167 0.0788363 0.0896378 0.0911923 0.099994 0.0904167 0.0994712 0.099994 0.107707 0.0994712 0.107357 0.0904167 0.0994712 0.0896378 0.0989228 0.0994712 0.107357 0.0989228 0.106975 0.066186 0.0788363 0.065026 0.0778393 0.0788363 0.0896378 0.0778393 0.0888692 0.065026 0.0778393 0.0640026 0.0769141 0.0778393 0.0888692 0.0769141 0.0881211 0.0896378 0.0989228 0.0888692 0.0983586 0.0989228 0.106975 0.0983586 0.106567 0.0888692 0.0983586 0.0881211 0.0977874 0.0983586 0.106567 0.0977874 0.106139 0 0.0172268 0 0.016917 0.0172268 0.0337649 0.016917 0.0331601 0 0.016917 0 0.0166615 0.016917 0.0331601 0.0166615 0.0326574 0.0337649 0.04949 0.0331601 0.0486709 0.04949 0.0640026 0.0486709 0.0630993 0.0331601 0.0486709 0.0326574 0.0479722 0.0486709 0.0630993 0.0479722 0.0623013 0 0.0166615 0 0.0164493 0.0166615 0.0326574 0.0164493 0.0322365 0 0.0164493 0 0.0162716 0.0164493 0.0322365 0.0162716 0.0318813 0.0326574 0.0479722 0.0322365 0.0473728 0.0479722 0.0623013 0.0473728 0.0615951 0.0322365 0.0473728 0.0318813 0.0468559 0.0473728 0.0615951 0.0468559 0.0609688 0.0640026 0.0769141 0.0630993 0.0760608 0.0769141 0.0881211 0.0760608 0.0874007 0.0630993 0.0760608 0.0623013 0.075277 0.0760608 0.0874007 0.075277 0.0867126 0.0881211 0.0977874 0.0874007 0.0972165 0.0977874 0.106139 0.0972165 0.105699 0.0874007 0.0972165 0.0867126 0.096652 0.0972165 0.105699 0.096652 0.10525 0.0623013 0.075277 0.0615951 0.0745587 0.075277 0.0867126 0.0745587 0.0860594 0.0615951 0.0745587 0.0609688 0.0739014 0.0745587 0.0860594 0.0739014 0.0854421 0.0867126 0.096652 0.0860594 0.0960986 0.096652 0.10525 0.0960986 0.104797 0.0860594 0.0960986 0.0854421 0.0955599 0.0960986 0.104797 0.0955599 0.104345 0.107707 0.114484 0.107357 0.11425 0.114484 0.120428 0.11425 0.120268 0.107357 0.11425 0.106975 0.113983 0.11425 0.120268 0.113983 0.120076 0.120428 0.125618 0.120268 0.125501 0.125618 0.130121 0.125501 0.130027 0.120268 0.125501 0.120076 0.125356 0.125501 0.130027 0.125356 0.129907 0.106975 0.113983 0.106567 0.113686 0.113983 0.120076 0.113686 0.119856 0.106567 0.113686 0.106139 0.113366 0.113686 0.119856 0.113366 0.119611 0.120076 0.125356 0.119856 0.125185 0.125356 0.129907 0.125185 0.129765 0.119856 0.125185 0.119611 0.12499 0.125185 0.129765 0.12499 0.129601 0.130121 0.134003 0.130027 0.133915 0.134003 0.137324 0.133915 0.137233 0.130027 0.133915 0.129907 0.133806 0.133915 0.137233 0.133806 0.137123 0.137324 0.140145 0.137233 0.140042 0.140145 0.142523 0.140042 0.142404 0.137233 0.140042 0.137123 0.139924 0.140042 0.142404 0.139924 0.142272 0.129907 0.133806 0.129765 0.133677 0.133806 0.137123 0.133677 0.136996 0.129765 0.133677 0.129601 0.133528 0.133677 0.136996 0.133528 0.136852 0.137123 0.139924 0.136996 0.139791 0.139924 0.142272 0.139791 0.142129 0.136996 0.139791 0.136852 0.139645 0.139791 0.142129 0.139645 0.141973 0.106139 0.113366 0.105699 0.113026 0.113366 0.119611 0.113026 0.119345 0.105699 0.113026 0.10525 0.112671 0.113026 0.119345 0.112671 0.119061 0.119611 0.12499 0.119345 0.124775 0.12499 0.129601 0.124775 0.129417 0.119345 0.124775 0.119061 0.12454 0.124775 0.129417 0.12454 0.129216 0.10525 0.112671 0.104797 0.112305 0.112671 0.119061 0.112305 0.118762 0.104797 0.112305 0.104345 0.111931 0.112305 0.118762 0.111931 0.11845 0.119061 0.12454 0.118762 0.12429 0.12454 0.129216 0.12429 0.128998 0.118762 0.12429 0.11845 0.124025 0.12429 0.128998 0.124025 0.128765 0.129601 0.133528 0.129417 0.133362 0.133528 0.136852 0.133362 0.136693 0.129417 0.133362 0.129216 0.13318 0.133362 0.136693 0.13318 0.136519 0.136852 0.139645 0.136693 0.139484 0.139645 0.141973 0.139484 0.141807 0.136693 0.139484 0.136519 0.139311 0.139484 0.141807 0.139311 0.141629 0.129216 0.13318 0.128998 0.132982 0.13318 0.136519 0.132982 0.136331 0.128998 0.132982 0.128765 0.13277 0.132982 0.136331 0.13277 0.13613 0.136519 0.139311 0.136331 0.139126 0.139311 0.141629 0.139126 0.14144 0.136331 0.139126 0.13613 0.138928 0.139126 0.14144 0.138928 0.14124 0.143031 0.145277 0.14301 0.145212 0.145277 0.147176 0.145212 0.147071 0.14301 0.145212 0.142978 0.14514 0.145212 0.147071 0.14514 0.146961 0.147176 0.148771 0.147071 0.148629 0.148771 0.150098 0.148629 0.149924 0.147071 0.148629 0.146961 0.148485 0.148629 0.149924 0.148485 0.149749 0.142978 0.14514 0.142933 0.145058 0.14514 0.146961 0.145058 0.146845 0.142933 0.145058 0.142876 0.144968 0.145058 0.146845 0.144968 0.146723 0.146961 0.148485 0.146845 0.148336 0.148485 0.149749 0.148336 0.149571 0.146845 0.148336 0.146723 0.148184 0.148336 0.149571 0.148184 0.149391 0.150098 0.151195 0.149924 0.150993 0.151195 0.152095 0.150993 0.151868 0.149924 0.150993 0.149749 0.15079 0.150993 0.151868 0.15079 0.151641 0.152095 0.152828 0.151868 0.152579 0.152828 0.15342 0.152579 0.153154 0.151868 0.152579 0.151641 0.152332 0.152579 0.153154 0.152332 0.152889 0.149749 0.15079 0.149571 0.150586 0.15079 0.151641 0.150586 0.151414 0.149571 0.150586 0.149391 0.150381 0.150586 0.151414 0.150381 0.151187 0.151641 0.152332 0.151414 0.152086 0.152332 0.152889 0.152086 0.152626 0.151414 0.152086 0.151187 0.151839 0.152086 0.152626 0.151839 0.152363 0.142876 0.144968 0.142807 0.144869 0.144968 0.146723 0.144869 0.146594 0.142807 0.144869 0.142725 0.14476 0.144869 0.146594 0.14476 0.146458 0.146723 0.148184 0.146594 0.148027 0.148184 0.149391 0.148027 0.149208 0.146594 0.148027 0.146458 0.147865 0.148027 0.149208 0.147865 0.149022 0.142725 0.14476 0.14263 0.144641 0.14476 0.146458 0.144641 0.146315 0.14263 0.144641 0.142523 0.144512 0.144641 0.146315 0.144512 0.146164 0.146458 0.147865 0.146315 0.147698 0.147865 0.149022 0.147698 0.148832 0.146315 0.147698 0.146164 0.147525 0.147698 0.148832 0.147525 0.148637 0.149391 0.150381 0.149208 0.150175 0.150381 0.151187 0.150175 0.15096 0.149208 0.150175 0.149022 0.149966 0.150175 0.15096 0.149966 0.150731 0.151187 0.151839 0.15096 0.151593 0.151839 0.152363 0.151593 0.152101 0.15096 0.151593 0.150731 0.151347 0.151593 0.152101 0.151347 0.151838 0.149022 0.149966 0.148832 0.149755 0.149966 0.150731 0.149755 0.1505 0.148832 0.149755 0.148637 0.14954 0.149755 0.1505 0.14954 0.150268 0.150731 0.151347 0.1505 0.151099 0.151347 0.151838 0.151099 0.151576 0.1505 0.151099 0.150268 0.15085 0.151099 0.151576 0.15085 0.151313 0.15342 0.153896 0.153154 0.153615 0.153896 0.154275 0.153615 0.153982 0.153154 0.153615 0.152889 0.153335 0.153615 0.153982 0.153335 0.15369 0.154275 0.154575 0.153982 0.154271 0.154575 0.15481 0.154271 0.154499 0.153982 0.154271 0.15369 0.15397 0.154271 0.154499 0.15397 0.15419 0.152889 0.153335 0.152626 0.153057 0.153335 0.15369 0.153057 0.1534 0.152626 0.153057 0.152363 0.152781 0.153057 0.1534 0.152781 0.153111 0.15369 0.15397 0.1534 0.15367 0.15397 0.15419 0.15367 0.153882 0.1534 0.15367 0.153111 0.153372 0.15367 0.153882 0.153372 0.153575 0.15481 0.154994 0.154499 0.154677 0.154994 0.155136 0.154677 0.154814 0.154499 0.154677 0.15419 0.154361 0.154677 0.154814 0.154361 0.154493 0.155136 0.155246 0.154814 0.15492 0.155246 0.155329 0.15492 0.155001 0.154814 0.15492 0.154493 0.154595 0.15492 0.155001 0.154595 0.154673 0.15419 0.154361 0.153882 0.154047 0.154361 0.154493 0.154047 0.154174 0.153882 0.154047 0.153575 0.153733 0.154047 0.154174 0.153733 0.153855 0.154493 0.154595 0.154174 0.154272 0.154595 0.154673 0.154272 0.154346 0.154174 0.154272 0.153855 0.153949 0.154272 0.154346 0.153949 0.15402 0.152363 0.152781 0.152101 0.152504 0.152781 0.153111 0.152504 0.152824 0.152101 0.152504 0.151838 0.152229 0.152504 0.152824 0.152229 0.152536 0.153111 0.153372 0.152824 0.153074 0.153372 0.153575 0.153074 0.15327 0.152824 0.153074 0.152536 0.152777 0.153074 0.15327 0.152777 0.152965 0.151838 0.152229 0.151576 0.151953 0.152229 0.152536 0.151953 0.152249 0.151576 0.151953 0.151313 0.151677 0.151953 0.152249 0.151677 0.151963 0.152536 0.152777 0.152249 0.152481 0.152777 0.152965 0.152481 0.15266 0.152249 0.152481 0.151963 0.152185 0.152481 0.15266 0.152185 0.152357 0.153575 0.153733 0.15327 0.153421 0.153733 0.153855 0.153421 0.153538 0.15327 0.153421 0.152965 0.15311 0.153421 0.153538 0.15311 0.153221 0.153855 0.153949 0.153538 0.153627 0.153949 0.15402 0.153627 0.153695 0.153538 0.153627 0.153221 0.153306 0.153627 0.153695 0.153306 0.15337 0.152965 0.15311 0.15266 0.152799 0.15311 0.153221 0.152799 0.152905 0.15266 0.152799 0.152357 0.152488 0.152799 0.152905 0.152488 0.152589 0.153221 0.153306 0.152905 0.152985 0.153306 0.15337 0.152985 0.153046 0.152905 0.152985 0.152589 0.152665 0.152985 0.153046 0.152665 0.152723 0.142523 0.144512 0.142404 0.144374 0.144512 0.146164 0.144374 0.146006 0.142404 0.144374 0.142272 0.144226 0.144374 0.146006 0.144226 0.145839 0.146164 0.147525 0.146006 0.147346 0.147525 0.148637 0.147346 0.148439 0.146006 0.147346 0.145839 0.147161 0.147346 0.148439 0.147161 0.148235 0.142272 0.144226 0.142129 0.144068 0.144226 0.145839 0.144068 0.145665 0.142129 0.144068 0.141973 0.143901 0.144068 0.145665 0.143901 0.145483 0.145839 0.147161 0.145665 0.14697 0.147161 0.148235 0.14697 0.148027 0.145665 0.14697 0.145483 0.146772 0.14697 0.148027 0.146772 0.147814 0.148637 0.14954 0.148439 0.149323 0.14954 0.150268 0.149323 0.150034 0.148439 0.149323 0.148235 0.149102 0.149323 0.150034 0.149102 0.149796 0.150268 0.15085 0.150034 0.1506 0.15085 0.151313 0.1506 0.151048 0.150034 0.1506 0.149796 0.150348 0.1506 0.151048 0.150348 0.150783 0.148235 0.149102 0.148027 0.148878 0.149102 0.149796 0.148878 0.149557 0.148027 0.148878 0.147814 0.148649 0.148878 0.149557 0.148649 0.149314 0.149796 0.150348 0.149557 0.150094 0.150348 0.150783 0.150094 0.150516 0.149557 0.150094 0.149314 0.149838 0.150094 0.150516 0.149838 0.150248 0.141973 0.143901 0.141807 0.143723 0.143901 0.145483 0.143723 0.145293 0.141807 0.143723 0.141629 0.143537 0.143723 0.145293 0.143537 0.145095 0.145483 0.146772 0.145293 0.146568 0.146772 0.147814 0.146568 0.147595 0.145293 0.146568 0.145095 0.146357 0.146568 0.147595 0.146357 0.147371 0.141629 0.143537 0.14144 0.14334 0.143537 0.145095 0.14334 0.144889 0.14144 0.14334 0.14124 0.143135 0.14334 0.144889 0.143135 0.144675 0.145095 0.146357 0.144889 0.14614 0.146357 0.147371 0.14614 0.147142 0.144889 0.14614 0.144675 0.145916 0.14614 0.147142 0.145916 0.146907 0.147814 0.148649 0.147595 0.148417 0.148649 0.149314 0.148417 0.149067 0.147595 0.148417 0.147371 0.148179 0.148417 0.149067 0.148179 0.148817 0.149314 0.149838 0.149067 0.149579 0.149838 0.150248 0.149579 0.149977 0.149067 0.149579 0.148817 0.149317 0.149579 0.149977 0.149317 0.149705 0.147371 0.148179 0.147142 0.147938 0.148179 0.148817 0.147938 0.148564 0.147142 0.147938 0.146907 0.147691 0.147938 0.148564 0.147691 0.148306 0.148817 0.149317 0.148564 0.149052 0.149317 0.149705 0.149052 0.14943 0.148564 0.149052 0.148306 0.148784 0.149052 0.14943 0.148784 0.149152 0.151313 0.151677 0.151048 0.151401 0.151677 0.151963 0.151401 0.151676 0.151048 0.151401 0.150783 0.151124 0.151401 0.151676 0.151124 0.151388 0.151963 0.152185 0.151676 0.151889 0.152185 0.152357 0.151889 0.152053 0.151676 0.151889 0.151388 0.151593 0.151889 0.152053 0.151593 0.151749 0.150783 0.151124 0.150516 0.150846 0.151124 0.151388 0.150846 0.1511 0.150516 0.150846 0.150248 0.150566 0.150846 0.1511 0.150566 0.150812 0.151388 0.151593 0.1511 0.151296 0.151593 0.151749 0.151296 0.151445 0.1511 0.151296 0.150812 0.150999 0.151296 0.151445 0.150999 0.151141 0.152357 0.152488 0.152053 0.152178 0.152488 0.152589 0.152178 0.152274 0.152053 0.152178 0.151749 0.151868 0.152178 0.152274 0.151868 0.151958 0.152589 0.152665 0.152274 0.152346 0.152665 0.152723 0.152346 0.1524 0.152274 0.152346 0.151958 0.152026 0.152346 0.1524 0.152026 0.152077 0.151749 0.151868 0.151445 0.151558 0.151868 0.151958 0.151558 0.151643 0.151445 0.151558 0.151141 0.151248 0.151558 0.151643 0.151248 0.151328 0.151958 0.152026 0.151643 0.151707 0.152026 0.152077 0.151707 0.151754 0.151643 0.151707 0.151328 0.151387 0.151707 0.151754 0.151387 0.151431 0.150248 0.150566 0.149977 0.150285 0.150566 0.150812 0.150285 0.150522 0.149977 0.150285 0.149705 0.150003 0.150285 0.150522 0.150003 0.150231 0.150812 0.150999 0.150522 0.150701 0.150999 0.151141 0.150701 0.150837 0.150522 0.150701 0.150231 0.150402 0.150701 0.150837 0.150402 0.150531 0.149705 0.150003 0.14943 0.149719 0.150003 0.150231 0.149719 0.149938 0.14943 0.149719 0.149152 0.149433 0.149719 0.149938 0.149433 0.149644 0.150231 0.150402 0.149938 0.150103 0.150402 0.150531 0.150103 0.150225 0.149938 0.150103 0.149644 0.149802 0.150103 0.150225 0.149802 0.149918 0.151141 0.151248 0.150837 0.150938 0.151248 0.151328 0.150938 0.151013 0.150837 0.150938 0.150531 0.150627 0.150938 0.151013 0.150627 0.150697 0.151328 0.151387 0.151013 0.151068 0.151387 0.151431 0.151068 0.151108 0.151013 0.151068 0.150697 0.150748 0.151068 0.151108 0.150748 0.150785 0.150531 0.150627 0.150225 0.150315 0.150627 0.150697 0.150315 0.150381 0.150225 0.150315 0.149918 0.150003 0.150315 0.150381 0.150003 0.150064 0.150697 0.150748 0.150381 0.150428 0.150748 0.150785 0.150428 0.150462 0.150381 0.150428 0.150064 0.150108 0.150428 0.150462 0.150108 0.150139 0 0.0162716 0 0.0161215 0.0162716 0.0318813 0.0161215 0.0315791 0 0.0161215 0 0.0159935 0.0161215 0.0315791 0.0159935 0.0313198 0.0318813 0.0468559 0.0315791 0.0464075 0.0468559 0.0609688 0.0464075 0.0604117 0.0315791 0.0464075 0.0313198 0.0460163 0.0464075 0.0604117 0.0460163 0.0599148 0 0.0159935 0 0.0158834 0.0159935 0.0313198 0.0158834 0.0310954 0 0.0158834 0 0.0157877 0.0158834 0.0310954 0.0157877 0.0308996 0.0313198 0.0460163 0.0310954 0.0456729 0.0460163 0.0599148 0.0456729 0.05947 0.0310954 0.0456729 0.0308996 0.0453696 0.0456729 0.05947 0.0453696 0.0590705 0.0609688 0.0739014 0.0604117 0.0733002 0.0739014 0.0854421 0.0733002 0.0848607 0.0604117 0.0733002 0.0599148 0.0727502 0.0733002 0.0848607 0.0727502 0.0843146 0.0854421 0.0955599 0.0848607 0.0950383 0.0955599 0.104345 0.0950383 0.103896 0.0848607 0.0950383 0.0843146 0.0945356 0.0950383 0.103896 0.0945356 0.103454 0.0599148 0.0727502 0.05947 0.0722466 0.0727502 0.0843146 0.0722466 0.0838024 0.05947 0.0722466 0.0590705 0.0717851 0.0722466 0.0838024 0.0717851 0.0833225 0.0843146 0.0945356 0.0838024 0.0940528 0.0945356 0.103454 0.0940528 0.10302 0.0838024 0.0940528 0.0833225 0.0935904 0.0940528 0.10302 0.0935904 0.102595 0 0.0157877 0 0.0157038 0.0157877 0.0308996 0.0157038 0.0307273 0 0.0157038 0 0.0156295 0.0157038 0.0307273 0.0156295 0.0305744 0.0308996 0.0453696 0.0307273 0.0451 0.0453696 0.0590705 0.0451 0.0587102 0.0307273 0.0451 0.0305744 0.044859 0.0451 0.0587102 0.044859 0.058384 0 0.0156295 0 0.015563 0.0156295 0.0305744 0.015563 0.0304374 0 0.015563 0 0.0155