# vtk DataFile Version 3.0
#This file was generated by the deal.II library on 2022/1/6 at 22:38:17
ASCII
DATASET UNSTRUCTURED_GRID

POINTS 16384 double
0 0 0
0.1875 0 0
0 0.046875 0
0.1875 0.046875 0
0.1875 0 0
0.375 0 0
0.1875 0.046875 0
0.375 0.046875 0
0 0.046875 0
0.1875 0.046875 0
0 0.09375 0
0.1875 0.09375 0
0.1875 0.046875 0
0.375 0.046875 0
0.1875 0.09375 0
0.375 0.09375 0
0.375 0 0
0.5625 0 0
0.375 0.046875 0
0.5625 0.046875 0
0.5625 0 0
0.75 0 0
0.5625 0.046875 0
0.75 0.046875 0
0.375 0.046875 0
0.5625 0.046875 0
0.375 0.09375 0
0.5625 0.09375 0
0.5625 0.046875 0
0.75 0.046875 0
0.5625 0.09375 0
0.75 0.09375 0
0 0.09375 0
0.1875 0.09375 0
0 0.140625 0
0.1875 0.140625 0
0.1875 0.09375 0
0.375 0.09375 0
0.1875 0.140625 0
0.375 0.140625 0
0 0.140625 0
0.1875 0.140625 0
0 0.1875 0
0.1875 0.1875 0
0.1875 0.140625 0
0.375 0.140625 0
0.1875 0.1875 0
0.375 0.1875 0
0.375 0.09375 0
0.5625 0.09375 0
0.375 0.140625 0
0.5625 0.140625 0
0.5625 0.09375 0
0.75 0.09375 0
0.5625 0.140625 0
0.75 0.140625 0
0.375 0.140625 0
0.5625 0.140625 0
0.375 0.1875 0
0.5625 0.1875 0
0.5625 0.140625 0
0.75 0.140625 0
0.5625 0.1875 0
0.75 0.1875 0
0.75 0 0
0.9375 0 0
0.75 0.046875 0
0.9375 0.046875 0
0.9375 0 0
1.125 0 0
0.9375 0.046875 0
1.125 0.046875 0
0.75 0.046875 0
0.9375 0.046875 0
0.75 0.09375 0
0.9375 0.09375 0
0.9375 0.046875 0
1.125 0.046875 0
0.9375 0.09375 0
1.125 0.09375 0
1.125 0 0
1.3125 0 0
1.125 0.046875 0
1.3125 0.046875 0
1.3125 0 0
1.5 0 0
1.3125 0.046875 0
1.5 0.046875 0
1.125 0.046875 0
1.3125 0.046875 0
1.125 0.09375 0
1.3125 0.09375 0
1.3125 0.046875 0
1.5 0.046875 0
1.3125 0.09375 0
1.5 0.09375 0
0.75 0.09375 0
0.9375 0.09375 0
0.75 0.140625 0
0.9375 0.140625 0
0.9375 0.09375 0
1.125 0.09375 0
0.9375 0.140625 0
1.125 0.140625 0
0.75 0.140625 0
0.9375 0.140625 0
0.75 0.1875 0
0.9375 0.1875 0
0.9375 0.140625 0
1.125 0.140625 0
0.9375 0.1875 0
1.125 0.1875 0
1.125 0.09375 0
1.3125 0.09375 0
1.125 0.140625 0
1.3125 0.140625 0
1.3125 0.09375 0
1.5 0.09375 0
1.3125 0.140625 0
1.5 0.140625 0
1.125 0.140625 0
1.3125 0.140625 0
1.125 0.1875 0
1.3125 0.1875 0
1.3125 0.140625 0
1.5 0.140625 0
1.3125 0.1875 0
1.5 0.1875 0
0 0.1875 0
0.1875 0.1875 0
0 0.234375 0
0.1875 0.234375 0
0.1875 0.1875 0
0.375 0.1875 0
0.1875 0.234375 0
0.375 0.234375 0
0 0.234375 0
0.1875 0.234375 0
0 0.28125 0
0.1875 0.28125 0
0.1875 0.234375 0
0.375 0.234375 0
0.1875 0.28125 0
0.375 0.28125 0
0.375 0.1875 0
0.5625 0.1875 0
0.375 0.234375 0
0.5625 0.234375 0
0.5625 0.1875 0
0.75 0.1875 0
0.5625 0.234375 0
0.75 0.234375 0
0.375 0.234375 0
0.5625 0.234375 0
0.375 0.28125 0
0.5625 0.28125 0
0.5625 0.234375 0
0.75 0.234375 0
0.5625 0.28125 0
0.75 0.28125 0
0 0.28125 0
0.1875 0.28125 0
0 0.328125 0
0.1875 0.328125 0
0.1875 0.28125 0
0.375 0.28125 0
0.1875 0.328125 0
0.375 0.328125 0
0 0.328125 0
0.1875 0.328125 0
0 0.375 0
0.1875 0.375 0
0.1875 0.328125 0
0.375 0.328125 0
0.1875 0.375 0
0.375 0.375 0
0.375 0.28125 0
0.5625 0.28125 0
0.375 0.328125 0
0.5625 0.328125 0
0.5625 0.28125 0
0.75 0.28125 0
0.5625 0.328125 0
0.75 0.328125 0
0.375 0.328125 0
0.5625 0.328125 0
0.375 0.375 0
0.5625 0.375 0
0.5625 0.328125 0
0.75 0.328125 0
0.5625 0.375 0
0.75 0.375 0
0.75 0.1875 0
0.9375 0.1875 0
0.75 0.234375 0
0.9375 0.234375 0
0.9375 0.1875 0
1.125 0.1875 0
0.9375 0.234375 0
1.125 0.234375 0
0.75 0.234375 0
0.9375 0.234375 0
0.75 0.28125 0
0.9375 0.28125 0
0.9375 0.234375 0
1.125 0.234375 0
0.9375 0.28125 0
1.125 0.28125 0
1.125 0.1875 0
1.3125 0.1875 0
1.125 0.234375 0
1.3125 0.234375 0
1.3125 0.1875 0
1.5 0.1875 0
1.3125 0.234375 0
1.5 0.234375 0
1.125 0.234375 0
1.3125 0.234375 0
1.125 0.28125 0
1.3125 0.28125 0
1.3125 0.234375 0
1.5 0.234375 0
1.3125 0.28125 0
1.5 0.28125 0
0.75 0.28125 0
0.9375 0.28125 0
0.75 0.328125 0
0.9375 0.328125 0
0.9375 0.28125 0
1.125 0.28125 0
0.9375 0.328125 0
1.125 0.328125 0
0.75 0.328125 0
0.9375 0.328125 0
0.75 0.375 0
0.9375 0.375 0
0.9375 0.328125 0
1.125 0.328125 0
0.9375 0.375 0
1.125 0.375 0
1.125 0.28125 0
1.3125 0.28125 0
1.125 0.328125 0
1.3125 0.328125 0
1.3125 0.28125 0
1.5 0.28125 0
1.3125 0.328125 0
1.5 0.328125 0
1.125 0.328125 0
1.3125 0.328125 0
1.125 0.375 0
1.3125 0.375 0
1.3125 0.328125 0
1.5 0.328125 0
1.3125 0.375 0
1.5 0.375 0
1.5 0 0
1.6875 0 0
1.5 0.046875 0
1.6875 0.046875 0
1.6875 0 0
1.875 0 0
1.6875 0.046875 0
1.875 0.046875 0
1.5 0.046875 0
1.6875 0.046875 0
1.5 0.09375 0
1.6875 0.09375 0
1.6875 0.046875 0
1.875 0.046875 0
1.6875 0.09375 0
1.875 0.09375 0
1.875 0 0
2.0625 0 0
1.875 0.046875 0
2.0625 0.046875 0
2.0625 0 0
2.25 0 0
2.0625 0.046875 0
2.25 0.046875 0
1.875 0.046875 0
2.0625 0.046875 0
1.875 0.09375 0
2.0625 0.09375 0
2.0625 0.046875 0
2.25 0.046875 0
2.0625 0.09375 0
2.25 0.09375 0
1.5 0.09375 0
1.6875 0.09375 0
1.5 0.140625 0
1.6875 0.140625 0
1.6875 0.09375 0
1.875 0.09375 0
1.6875 0.140625 0
1.875 0.140625 0
1.5 0.140625 0
1.6875 0.140625 0
1.5 0.1875 0
1.6875 0.1875 0
1.6875 0.140625 0
1.875 0.140625 0
1.6875 0.1875 0
1.875 0.1875 0
1.875 0.09375 0
2.0625 0.09375 0
1.875 0.140625 0
2.0625 0.140625 0
2.0625 0.09375 0
2.25 0.09375 0
2.0625 0.140625 0
2.25 0.140625 0
1.875 0.140625 0
2.0625 0.140625 0
1.875 0.1875 0
2.0625 0.1875 0
2.0625 0.140625 0
2.25 0.140625 0
2.0625 0.1875 0
2.25 0.1875 0
2.25 0 0
2.4375 0 0
2.25 0.046875 0
2.4375 0.046875 0
2.4375 0 0
2.625 0 0
2.4375 0.046875 0
2.625 0.046875 0
2.25 0.046875 0
2.4375 0.046875 0
2.25 0.09375 0
2.4375 0.09375 0
2.4375 0.046875 0
2.625 0.046875 0
2.4375 0.09375 0
2.625 0.09375 0
2.625 0 0
2.8125 0 0
2.625 0.046875 0
2.8125 0.046875 0
2.8125 0 0
3 0 0
2.8125 0.046875 0
3 0.046875 0
2.625 0.046875 0
2.8125 0.046875 0
2.625 0.09375 0
2.8125 0.09375 0
2.8125 0.046875 0
3 0.046875 0
2.8125 0.09375 0
3 0.09375 0
2.25 0.09375 0
2.4375 0.09375 0
2.25 0.140625 0
2.4375 0.140625 0
2.4375 0.09375 0
2.625 0.09375 0
2.4375 0.140625 0
2.625 0.140625 0
2.25 0.140625 0
2.4375 0.140625 0
2.25 0.1875 0
2.4375 0.1875 0
2.4375 0.140625 0
2.625 0.140625 0
2.4375 0.1875 0
2.625 0.1875 0
2.625 0.09375 0
2.8125 0.09375 0
2.625 0.140625 0
2.8125 0.140625 0
2.8125 0.09375 0
3 0.09375 0
2.8125 0.140625 0
3 0.140625 0
2.625 0.140625 0
2.8125 0.140625 0
2.625 0.1875 0
2.8125 0.1875 0
2.8125 0.140625 0
3 0.140625 0
2.8125 0.1875 0
3 0.1875 0
1.5 0.1875 0
1.6875 0.1875 0
1.5 0.234375 0
1.6875 0.234375 0
1.6875 0.1875 0
1.875 0.1875 0
1.6875 0.234375 0
1.875 0.234375 0
1.5 0.234375 0
1.6875 0.234375 0
1.5 0.28125 0
1.6875 0.28125 0
1.6875 0.234375 0
1.875 0.234375 0
1.6875 0.28125 0
1.875 0.28125 0
1.875 0.1875 0
2.0625 0.1875 0
1.875 0.234375 0
2.0625 0.234375 0
2.0625 0.1875 0
2.25 0.1875 0
2.0625 0.234375 0
2.25 0.234375 0
1.875 0.234375 0
2.0625 0.234375 0
1.875 0.28125 0
2.0625 0.28125 0
2.0625 0.234375 0
2.25 0.234375 0
2.0625 0.28125 0
2.25 0.28125 0
1.5 0.28125 0
1.6875 0.28125 0
1.5 0.328125 0
1.6875 0.328125 0
1.6875 0.28125 0
1.875 0.28125 0
1.6875 0.328125 0
1.875 0.328125 0
1.5 0.328125 0
1.6875 0.328125 0
1.5 0.375 0
1.6875 0.375 0
1.6875 0.328125 0
1.875 0.328125 0
1.6875 0.375 0
1.875 0.375 0
1.875 0.28125 0
2.0625 0.28125 0
1.875 0.328125 0
2.0625 0.328125 0
2.0625 0.28125 0
2.25 0.28125 0
2.0625 0.328125 0
2.25 0.328125 0
1.875 0.328125 0
2.0625 0.328125 0
1.875 0.375 0
2.0625 0.375 0
2.0625 0.328125 0
2.25 0.328125 0
2.0625 0.375 0
2.25 0.375 0
2.25 0.1875 0
2.4375 0.1875 0
2.25 0.234375 0
2.4375 0.234375 0
2.4375 0.1875 0
2.625 0.1875 0
2.4375 0.234375 0
2.625 0.234375 0
2.25 0.234375 0
2.4375 0.234375 0
2.25 0.28125 0
2.4375 0.28125 0
2.4375 0.234375 0
2.625 0.234375 0
2.4375 0.28125 0
2.625 0.28125 0
2.625 0.1875 0
2.8125 0.1875 0
2.625 0.234375 0
2.8125 0.234375 0
2.8125 0.1875 0
3 0.1875 0
2.8125 0.234375 0
3 0.234375 0
2.625 0.234375 0
2.8125 0.234375 0
2.625 0.28125 0
2.8125 0.28125 0
2.8125 0.234375 0
3 0.234375 0
2.8125 0.28125 0
3 0.28125 0
2.25 0.28125 0
2.4375 0.28125 0
2.25 0.328125 0
2.4375 0.328125 0
2.4375 0.28125 0
2.625 0.28125 0
2.4375 0.328125 0
2.625 0.328125 0
2.25 0.328125 0
2.4375 0.328125 0
2.25 0.375 0
2.4375 0.375 0
2.4375 0.328125 0
2.625 0.328125 0
2.4375 0.375 0
2.625 0.375 0
2.625 0.28125 0
2.8125 0.28125 0
2.625 0.328125 0
2.8125 0.328125 0
2.8125 0.28125 0
3 0.28125 0
2.8125 0.328125 0
3 0.328125 0
2.625 0.328125 0
2.8125 0.328125 0
2.625 0.375 0
2.8125 0.375 0
2.8125 0.328125 0
3 0.328125 0
2.8125 0.375 0
3 0.375 0
0 0.375 0
0.1875 0.375 0
0 0.421875 0
0.1875 0.421875 0
0.1875 0.375 0
0.375 0.375 0
0.1875 0.421875 0
0.375 0.421875 0
0 0.421875 0
0.1875 0.421875 0
0 0.46875 0
0.1875 0.46875 0
0.1875 0.421875 0
0.375 0.421875 0
0.1875 0.46875 0
0.375 0.46875 0
0.375 0.375 0
0.5625 0.375 0
0.375 0.421875 0
0.5625 0.421875 0
0.5625 0.375 0
0.75 0.375 0
0.5625 0.421875 0
0.75 0.421875 0
0.375 0.421875 0
0.5625 0.421875 0
0.375 0.46875 0
0.5625 0.46875 0
0.5625 0.421875 0
0.75 0.421875 0
0.5625 0.46875 0
0.75 0.46875 0
0 0.46875 0
0.1875 0.46875 0
0 0.515625 0
0.1875 0.515625 0
0.1875 0.46875 0
0.375 0.46875 0
0.1875 0.515625 0
0.375 0.515625 0
0 0.515625 0
0.1875 0.515625 0
0 0.5625 0
0.1875 0.5625 0
0.1875 0.515625 0
0.375 0.515625 0
0.1875 0.5625 0
0.375 0.5625 0
0.375 0.46875 0
0.5625 0.46875 0
0.375 0.515625 0
0.5625 0.515625 0
0.5625 0.46875 0
0.75 0.46875 0
0.5625 0.515625 0
0.75 0.515625 0
0.375 0.515625 0
0.5625 0.515625 0
0.375 0.5625 0
0.5625 0.5625 0
0.5625 0.515625 0
0.75 0.515625 0
0.5625 0.5625 0
0.75 0.5625 0
0.75 0.375 0
0.9375 0.375 0
0.75 0.421875 0
0.9375 0.421875 0
0.9375 0.375 0
1.125 0.375 0
0.9375 0.421875 0
1.125 0.421875 0
0.75 0.421875 0
0.9375 0.421875 0
0.75 0.46875 0
0.9375 0.46875 0
0.9375 0.421875 0
1.125 0.421875 0
0.9375 0.46875 0
1.125 0.46875 0
1.125 0.375 0
1.3125 0.375 0
1.125 0.421875 0
1.3125 0.421875 0
1.3125 0.375 0
1.5 0.375 0
1.3125 0.421875 0
1.5 0.421875 0
1.125 0.421875 0
1.3125 0.421875 0
1.125 0.46875 0
1.3125 0.46875 0
1.3125 0.421875 0
1.5 0.421875 0
1.3125 0.46875 0
1.5 0.46875 0
0.75 0.46875 0
0.9375 0.46875 0
0.75 0.515625 0
0.9375 0.515625 0
0.9375 0.46875 0
1.125 0.46875 0
0.9375 0.515625 0
1.125 0.515625 0
0.75 0.515625 0
0.9375 0.515625 0
[...]
POINT_DATA 16384
SCALARS x_displacement double 1
LOOKUP_TABLE default
0 0.0304548 0 0.0276563 0.0304548 0.0529716 0.0276563 0.0520003 0 0.0276563 0 0.0257027 0.0276563 0.0520003 0.0257027 0.0498345 0.0529716 0.0652027 0.0520003 0.0645348 0.0652027 0.067032 0.0645348 0.0667303 0.0520003 0.0645348 0.0498345 0.0630913 0.0645348 0.0667303 0.0630913 0.065932 0 0.0257027 0 0.0240355 0.0257027 0.0498345 0.0240355 0.0467619 0 0.0240355 0 0.0225974 0.0240355 0.0467619 0.0225974 0.0435345 0.0498345 0.0630913 0.0467619 0.0607859 0.0630913 0.065932 0.0607859 0.064677 0.0467619 0.0607859 0.0435345 0.0574757 0.0607859 0.064677 0.0574757 0.0631018 0.067032 0.0679662 0.0667303 0.0679768 0.0679662 0.0691705 0.0679768 0.0693672 0.0667303 0.0679768 0.065932 0.0677191 0.0679768 0.0693672 0.0677191 0.0693726 0.0691705 0.0703813 0.0693672 0.0705773 0.0703813 0.0714069 0.0705773 0.0715444 0.0693672 0.0705773 0.0693726 0.0706533 0.0705773 0.0715444 0.0706533 0.0716049 0.065932 0.0677191 0.064677 0.0672349 0.0677191 0.0693726 0.0672349 0.0692138 0.064677 0.0672349 0.0631018 0.0665717 0.0672349 0.0692138 0.0665717 0.0689116 0.0693726 0.0706533 0.0692138 0.0706167 0.0706533 0.0716049 0.0706167 0.0715921 0.0692138 0.0706167 0.0689116 0.0704792 0.0706167 0.0715921 0.0704792 0.0715101 0 0.0225974 0 0.0213567 0.0225974 0.0435345 0.0213567 0.0404612 0 0.0213567 0 0.0202457 0.0213567 0.0404612 0.0202457 0.038025 0.0435345 0.0574757 0.0404612 0.0540473 0.0574757 0.0631018 0.0540473 0.0614459 0.0404612 0.0540473 0.038025 0.0513123 0.0540473 0.0614459 0.0513123 0.059749 0 0.0202457 0 0.0193004 0.0202457 0.038025 0.0193004 0.0360928 0 0.0193004 0 0.0185176 0.0193004 0.0360928 0.0185176 0.0345527 0.038025 0.0513123 0.0360928 0.0491338 0.0513123 0.059749 0.0491338 0.058142 0.0360928 0.0491338 0.0345527 0.0473565 0.0491338 0.058142 0.0473565 0.0566775 0.0631018 0.0665717 0.0614459 0.0657539 0.0665717 0.0689116 0.0657539 0.0684936 0.0614459 0.0657539 0.059749 0.0648405 0.0657539 0.0684936 0.0648405 0.0679808 0.0689116 0.0704792 0.0684936 0.0702525 0.0704792 0.0715101 0.0702525 0.0713644 0.0684936 0.0702525 0.0679808 0.0699491 0.0702525 0.0713644 0.0699491 0.0711613 0.059749 0.0648405 0.058142 0.0638664 0.0648405 0.0679808 0.0638664 0.0673976 0.058142 0.0638664 0.0566775 0.0628747 0.0638664 0.0673976 0.0628747 0.0667635 0.0679808 0.0699491 0.0673976 0.0695814 0.0699491 0.0711613 0.0695814 0.0709074 0.0673976 0.0695814 0.0667635 0.069162 0.0695814 0.0709074 0.069162 0.0706095 0.0714069 0.0722317 0.0715444 0.0722913 0.0722317 0.0728891 0.0722913 0.0728692 0.0715444 0.0722913 0.0716049 0.0723032 0.0722913 0.0728692 0.0723032 0.0728215 0.0728891 0.0734183 0.0728692 0.0733265 0.0734183 0.0738514 0.0733265 0.073699 0.0728692 0.0733265 0.0728215 0.0732201 0.0733265 0.073699 0.0732201 0.0735404 0.0716049 0.0723032 0.0715921 0.0722678 0.0723032 0.0728215 0.0722678 0.0727451 0.0715921 0.0722678 0.0715101 0.0721869 0.0722678 0.0727451 0.0721869 0.07264 0.0728215 0.0732201 0.0727451 0.0730977 0.0732201 0.0735404 0.0730977 0.0733741 0.0727451 0.0730977 0.07264 0.0729584 0.0730977 0.0733741 0.0729584 0.0731989 0.0738514 0.0742109 0.073699 0.0740097 0.0742109 0.0745117 0.0740097 0.0742724 0.073699 0.0740097 0.0735404 0.0738074 0.0740097 0.0742724 0.0738074 0.074035 0.0745117 0.0747631 0.0742724 0.074495 0.0747631 0.0749717 0.074495 0.0746822 0.0742724 0.074495 0.074035 0.0742302 0.074495 0.0746822 0.0742302 0.0743965 0.0735404 0.0738074 0.0733741 0.0736026 0.0738074 0.074035 0.0736026 0.0737982 0.0733741 0.0736026 0.0731989 0.0733942 0.0736026 0.0737982 0.0733942 0.0735609 0.074035 0.0742302 0.0737982 0.0739676 0.0742302 0.0743965 0.0739676 0.0741138 0.0737982 0.0739676 0.0735609 0.0737064 0.0739676 0.0741138 0.0737064 0.0738334 0.0715101 0.0721869 0.0713644 0.0720627 0.0721869 0.07264 0.0720627 0.0725066 0.0713644 0.0720627 0.0711613 0.0718978 0.0720627 0.0725066 0.0718978 0.0723458 0.07264 0.0729584 0.0725066 0.0728017 0.0729584 0.0731989 0.0728017 0.0730139 0.0725066 0.0728017 0.0723458 0.0726275 0.0728017 0.0730139 0.0726275 0.0728187 0.0711613 0.0718978 0.0709074 0.0716954 0.0718978 0.0723458 0.0716954 0.0721589 0.0709074 0.0716954 0.0706095 0.0714593 0.0716954 0.0721589 0.0714593 0.0719476 0.0723458 0.0726275 0.0721589 0.0724362 0.0726275 0.0728187 0.0724362 0.0726128 0.0721589 0.0724362 0.0719476 0.0722281 0.0724362 0.0726128 0.0722281 0.0723961 0.0731989 0.0733942 0.0730139 0.073181 0.0733942 0.0735609 0.073181 0.0733221 0.0730139 0.073181 0.0728187 0.0729625 0.073181 0.0733221 0.0729625 0.0730812 0.0735609 0.0737064 0.0733221 0.0734456 0.0737064 0.0738334 0.0734456 0.0735545 0.0733221 0.0734456 0.0730812 0.0731847 0.0734456 0.0735545 0.0731847 0.0732765 0.0728187 0.0729625 0.0726128 0.0727379 0.0729625 0.0730812 0.0727379 0.0728373 0.0726128 0.0727379 0.0723961 0.0725069 0.0727379 0.0728373 0.0725069 0.0725901 0.0730812 0.0731847 0.0728373 0.0729229 0.0731847 0.0732765 0.0729229 0.0729989 0.0728373 0.0729229 0.0725901 0.0726597 0.0729229 0.0729989 0.0726597 0.0727211 0 0.0185176 0 0.0178782 0.0185176 0.0345527 0.0178782 0.0333161 0 0.0178782 0 0.0173583 0.0178782 0.0333161 0.0173583 0.032316 0.0345527 0.0473565 0.0333161 0.045886 0.0473565 0.0566775 0.045886 0.0553635 0.0333161 0.045886 0.032316 0.0446576 0.045886 0.0553635 0.0446576 0.0541926 0 0.0173583 0 0.0169355 0.0173583 0.032316 0.0169355 0.031501 0 0.0169355 0 0.0165903 0.0169355 0.031501 0.0165903 0.0308318 0.032316 0.0446576 0.031501 0.0436237 0.0446576 0.0541926 0.0436237 0.0531526 0.031501 0.0436237 0.0308318 0.0427477 0.0436237 0.0531526 0.0427477 0.0522295 0.0566775 0.0628747 0.0553635 0.0618996 0.0628747 0.0667635 0.0618996 0.0660975 0.0553635 0.0618996 0.0541926 0.060963 0.0618996 0.0660975 0.060963 0.0654168 0.0667635 0.069162 0.0660975 0.0687023 0.069162 0.0706095 0.0687023 0.0702744 0.0660975 0.0687023 0.0654168 0.068213 0.0687023 0.0702744 0.068213 0.0699088 0.0541926 0.060963 0.0531526 0.0600771 0.060963 0.0654168 0.0600771 0.0647358 0.0531526 0.0600771 0.0522295 0.0592477 0.0600771 0.0647358 0.0592477 0.0640655 0.0654168 0.068213 0.0647358 0.0677039 0.068213 0.0699088 0.0677039 0.0695189 0.0647358 0.0677039 0.0640655 0.0671835 0.0677039 0.0695189 0.0671835 0.0691108 0 0.0165903 0 0.0163067 0.0165903 0.0308318 0.0163067 0.0302778 0 0.0163067 0 0.0160721 0.0163067 0.0302778 0.0160721 0.0298155 0.0308318 0.0427477 0.0302778 0.042001 0.0427477 0.0522295 0.042001 0.0514101 0.0302778 0.042001 0.0298155 0.0413608 0.042001 0.0514101 0.0413608 0.0506817 0 0.0160721 0 0.0158763 0.0160721 0.0298155 0.0158763 0.0294265 0 0.0158763 0 0.0157115 0.0158763 0.0294265 0.0157115 0.0290962 0.0298155 0.0413608 0.0294265 0.0408085 0.0413608 0.0506817 0.0408085 0.050033 0.0294265 0.0408085 0.0290962 0.0403292 0.0408085 0.050033 0.0403292 0.0494539 0.0522295 0.0592477 0.0514101 0.0584765 0.0592477 0.0640655 0.0584765 0.0634138 0.0514101 0.0584765 0.0506817 0.0577628 0.0584765 0.0634138 0.0577628 0.062786 0.0640655 0.0671835 0.0634138 0.0666593 0.0671835 0.0691108 0.0666593 0.0686896 0.0634138 0.0666593 0.062786 0.0661373 0.0666593 0.0686896 0.0661373 0.0682602 0.0506817 0.0577628 0.050033 0.0571041 0.0577628 0.062786 0.0571041 0.0621855 0.050033 0.0571041 0.0494539 0.0564972 0.0571041 0.0621855 0.0564972 0.0616141 0.062786 0.0661373 0.0621855 0.0656224 0.0661373 0.0682602 0.0656224 0.0678268 0.0621855 0.0656224 0.0616141 0.0651183 0.0656224 0.0678268 0.0651183 0.067393 0.0706095 0.0714593 0.0702744 0.071193 0.0714593 0.0719476 0.071193 0.0717137 0.0702744 0.071193 0.0699088 0.0709004 0.071193 0.0717137 0.0709004 0.0714592 0.0719476 0.0722281 0.0717137 0.072004 0.0722281 0.0723961 0.072004 0.0721687 0.0717137 0.072004 0.0714592 0.0717648 0.072004 0.0721687 0.0717648 0.0719308 0.0699088 0.0709004 0.0695189 0.0705854 0.0709004 0.0714592 0.0705854 0.0711863 0.0695189 0.0705854 0.0691108 0.0702517 0.0705854 0.0711863 0.0702517 0.0708972 0.0714592 0.0717648 0.0711863 0.0715117 0.0717648 0.0719308 0.0715117 0.0716828 0.0711863 0.0715117 0.0708972 0.0712456 0.0715117 0.0716828 0.0712456 0.0714253 0.0723961 0.0725069 0.0721687 0.0722692 0.0725069 0.0725901 0.0722692 0.072339 0.0721687 0.0722692 0.0719308 0.0720246 0.0722692 0.072339 0.0720246 0.0720838 0.0725901 0.0726597 0.072339 0.0723946 0.0726597 0.0727211 0.0723946 0.0724428 0.072339 0.0723946 0.0720838 0.0721272 0.0723946 0.0724428 0.0721272 0.0721634 0.0719308 0.0720246 0.0716828 0.0717732 0.0720246 0.0720838 0.0717732 0.0718241 0.0716828 0.0717732 0.0714253 0.071515 0.0717732 0.0718241 0.071515 0.07156 0.0720838 0.0721272 0.0718241 0.0718573 0.0721272 0.0721634 0.0718573 0.0718828 0.0718241 0.0718573 0.07156 0.0715845 0.0718573 0.0718828 0.0715845 0.0716004 0.0691108 0.0702517 0.0686896 0.0699028 0.0702517 0.0708972 0.0699028 0.0705941 0.0686896 0.0699028 0.0682602 0.0695422 0.0699028 0.0705941 0.0695422 0.0702791 0.0708972 0.0712456 0.0705941 0.0709679 0.0712456 0.0714253 0.0709679 0.0711588 0.0705941 0.0709679 0.0702791 0.0706799 0.0709679 0.0711588 0.0706799 0.0708839 0.0682602 0.0695422 0.0678268 0.0691729 0.0695422 0.0702791 0.0691729 0.0699544 0.0678268 0.0691729 0.067393 0.0687977 0.0691729 0.0699544 0.0687977 0.0696217 0.0702791 0.0706799 0.0699544 0.0703828 0.0706799 0.0708839 0.0703828 0.0706014 0.0699544 0.0703828 0.0696217 0.0700778 0.0703828 0.0706014 0.0700778 0.0703119 0.0714253 0.071515 0.0711588 0.0712502 0.071515 0.07156 0.0712502 0.0712912 0.0711588 0.0712502 0.0708839 0.0709791 0.0712502 0.0712912 0.0709791 0.0710178 0.07156 0.0715845 0.0712912 0.0713086 0.0715845 0.0716004 0.0713086 0.0713162 0.0712912 0.0713086 0.0710178 0.0710296 0.0713086 0.0713162 0.0710296 0.0710299 0.0708839 0.0709791 0.0706014 0.0707019 0.0709791 0.0710178 0.0707019 0.0707399 0.0706014 0.0707019 0.0703119 0.070419 0.0707019 0.0707399 0.070419 0.0704575 0.0710178 0.0710296 0.0707399 0.0707473 0.0710296 0.0710299 0.0707473 0.0707413 0.0707399 0.0707473 0.0704575 0.0704616 0.0707473 0.0707413 0.0704616 0.0704503 0.0749717 0.0751428 0.0746822 0.0748377 0.0751428 0.0752811 0.0748377 0.0749649 0.0746822 0.0748377 0.0743965 0.0745365 0.0748377 0.0749649 0.0745365 0.0746522 0.0752811 0.0753911 0.0749649 0.0750671 0.0753911 0.0754771 0.0750671 0.0751478 0.0749649 0.0750671 0.0746522 0.0747462 0.0750671 0.0751478 0.0747462 0.0748211 0.0743965 0.0745365 0.0741138 0.0742384 0.0745365 0.0746522 0.0742384 0.0743426 0.0741138 0.0742384 0.0738334 0.0739428 0.0742384 0.0743426 0.0739428 0.0740355 0.0746522 0.0747462 0.0743426 0.074428 0.0747462 0.0748211 0.074428 0.0744968 0.0743426 0.074428 0.0740355 0.0741123 0.074428 0.0744968 0.0741123 0.0741746 0.0754771 0.0755432 0.0751478 0.0752103 0.0755432 0.075593 0.0752103 0.0752579 0.0751478 0.0752103 0.0748211 0.0748797 0.0752103 0.0752579 0.0748797 0.0749247 0.075593 0.0756298 0.0752579 0.0752934 0.0756298 0.0756564 0.0752934 0.0753194 0.0752579 0.0752934 0.0749247 0.0749585 0.0752934 0.0753194 0.0749585 0.0749834 0.0748211 0.0748797 0.0744968 0.074551 0.0748797 0.0749247 0.074551 0.074593 0.0744968 0.074551 0.0741746 0.0742241 0.074551 0.074593 0.0742241 0.0742628 0.0749247 0.0749585 0.074593 0.0746248 0.0749585 0.0749834 0.0746248 0.0746485 0.074593 0.0746248 0.0742628 0.0742924 0.0746248 0.0746485 0.0742924 0.0743145 0.0738334 0.0739428 0.0735545 0.0736494 0.0739428 0.0740355 0.0736494 0.0737305 0.0735545 0.0736494 0.0732765 0.0733574 0.0736494 0.0737305 0.0733574 0.0734273 0.0740355 0.0741123 0.0737305 0.0737985 0.0741123 0.0741746 0.0737985 0.0738542 0.0737305 0.0737985 0.0734273 0.0734865 0.0737985 0.0738542 0.0734865 0.0735354 0.0732765 0.0733574 0.0729989 0.0730664 0.0733574 0.0734273 0.0730664 0.0731255 0.0729989 0.0730664 0.0727211 0.0727761 0.0730664 0.0731255 0.0727761 0.0728246 0.0734273 0.0734865 0.0731255 0.0731759 0.0734865 0.0735354 0.0731759 0.073218 0.0731255 0.0731759 0.0728246 0.0728664 0.0731759 0.073218 0.0728664 0.0729017 0.0741746 0.0742241 0.0738542 0.0738989 0.0742241 0.0742628 0.0738989 0.073934 0.0738542 0.0738989 0.0735354 0.073575 0.0738989 0.073934 0.073575 0.0736063 0.0742628 0.0742924 0.073934 0.073961 0.0742924 0.0743145 0.073961 0.0739814 0.073934 0.073961 0.0736063 0.0736306 0.073961 0.0739814 0.0736306 0.0736491 0.0735354 0.073575 0.073218 0.0732523 0.073575 0.0736063 0.0732523 0.0732797 0.073218 0.0732523 0.0729017 0.0729307 0.0732523 0.0732797 0.0729307 0.0729541 0.0736063 0.0736306 0.0732797 0.0733011 0.0736306 0.0736491 0.0733011 0.0733175 0.0732797 0.0733011 0.0729541 0.0729724 0.0733011 0.0733175 0.0729724 0.0729866 0.0756564 0.0756752 0.0753194 0.0753379 0.0756752 0.075688 0.0753379 0.0753507 0.0753194 0.0753379 0.0749834 0.0750014 0.0753379 0.0753507 0.0750014 0.0750141 0.075688 0.0756965 0.0753507 0.0753594 0.0756965 0.0757018 0.0753594 0.0753649 0.0753507 0.0753594 0.0750141 0.0750227 0.0753594 0.0753649 0.0750227 0.0750283 0.0749834 0.0750014 0.0746485 0.0746657 0.0750014 0.0750141 0.0746657 0.074678 0.0746485 0.0746657 0.0743145 0.0743308 0.0746657 0.074678 0.0743308 0.0743425 0.0750141 0.0750227 0.074678 0.0746864 0.0750227 0.0750283 0.0746864 0.074692 0.074678 0.0746864 0.0743425 0.0743506 0.0746864 0.074692 0.0743506 0.0743561 0.0757018 0.0757048 0.0753649 0.0753682 0.0757048 0.0757064 0.0753682 0.07537 0.0753649 0.0753682 0.0750283 0.0750318 0.0753682 0.07537 0.0750318 0.0750338 0.0757064 0.0757069 0.07537 0.0753708 0.0757069 0.0757068 0.0753708 0.0753709 0.07537 0.0753708 0.0750338 0.0750347 0.0753708 0.0753709 0.0750347 0.075035 0.0750283 0.0750318 0.074692 0.0746956 0.0750318 0.0750338 0.0746956 0.0746977 0.074692 0.0746956 0.0743561 0.0743596 0.0746956 0.0746977 0.0743596 0.0743618 0.0750338 0.0750347 0.0746977 0.0746988 0.0750347 0.075035 0.0746988 0.0746992 0.0746977 0.0746988 0.0743618 0.074363 0.0746988 0.0746992 0.074363 0.0743635 0.0743145 0.0743308 0.0739814 0.0739965 0.0743308 0.0743425 0.0739965 0.0740074 0.0739814 0.0739965 0.0736491 0.0736629 0.0739965 0.0740074 0.0736629 0.0736729 0.0743425 0.0743506 0.0740074 0.0740151 0.0743506 0.0743561 0.0740151 0.0740204 0.0740074 0.0740151 0.0736729 0.0736801 0.0740151 0.0740204 0.0736801 0.073685 0.0736491 0.0736629 0.0733175 0.0733298 0.0736629 0.0736729 0.0733298 0.0733389 0.0733175 0.0733298 0.0729866 0.0729973 0.0733298 0.0733389 0.0729973 0.0730052 0.0736729 0.0736801 0.0733389 0.0733453 0.0736801 0.073685 0.0733453 0.0733499 0.0733389 0.0733453 0.0730052 0.0730109 0.0733453 0.0733499 0.0730109 0.073015 0.0743561 0.0743596 0.0740204 0.0740239 0.0743596 0.0743618 0.0740239 0.074026 0.0740204 0.0740239 0.073685 0.0736883 0.0740239 0.074026 0.0736883 0.0736904 0.0743618 0.074363 0.074026 0.0740272 0.074363 0.0743635 0.0740272 0.0740279 0.074026 0.0740272 0.0736904 0.0736916 0.0740272 0.0740279 0.0736916 0.0736923 0.073685 0.0736883 0.0733499 0.0733529 0.0736883 0.0736904 0.0733529 0.0733549 0.0733499 0.0733529 0.073015 0.0730177 0.0733529 0.0733549 0.0730177 0.0730195 0.0736904 0.0736916 0.0733549 0.0733561 0.0736916 0.0736923 0.0733561 0.0733567 0.0733549 0.0733561 0.0730195 0.0730206 0.0733561 0.0733567 0.0730206 0.0730213 0.0727211 0.0727761 0.0724428 0.0724859 0.0727761 0.0728246 0.0724859 0.0725243 0.0724428 0.0724859 0.0721634 0.0721956 0.0724859 0.0725243 0.0721956 0.0722243 0.0728246 0.0728664 0.0725243 0.0725578 0.0728664 0.0729017 0.0725578 0.0725863 0.0725243 0.0725578 0.0722243 0.0722497 0.0725578 0.0725863 0.0722497 0.0722715 0.0721634 0.0721956 0.0718828 0.0719047 0.0721956 0.0722243 0.0719047 0.0719243 0.0718828 0.0719047 0.0716004 0.071613 0.0719047 0.0719243 0.071613 0.0716241 0.0722243 0.0722497 0.0719243 0.0719419 0.0722497 0.0722715 0.0719419 0.0719572 0.0719243 0.0719419 0.0716241 0.0716342 0.0719419 0.0719572 0.0716342 0.0716432 0.0729017 0.0729307 0.0725863 0.07261 0.0729307 0.0729541 0.07261 0.0726292 0.0725863 0.07261 0.0722715 0.0722899 0.07261 0.0726292 0.0722899 0.0723049 0.0729541 0.0729724 0.0726292 0.0726444 0.0729724 0.0729866 0.0726444 0.0726562 0.0726292 0.0726444 0.0723049 0.0723169 0.0726444 0.0726562 0.0723169 0.0723263 0.0722715 0.0722899 0.0719572 0.0719703 0.0722899 0.0723049 0.0719703 0.0719812 0.0719572 0.0719703 0.0716432 0.0716511 0.0719703 0.0719812 0.0716511 0.0716578 0.0723049 0.0723169 0.0719812 0.0719899 0.0723169 0.0723263 0.0719899 0.0719969 0.0719812 0.0719899 0.0716578 0.0716633 0.0719899 0.0719969 0.0716633 0.0716677 0.0716004 0.071613 0.0713162 0.0713203 0.071613 0.0716241 0.0713203 0.0713233 0.0713162 0.0713203 0.0710299 0.0710262 0.0713203 0.0713233 0.0710262 0.0710218 0.0716241 0.0716342 0.0713233 0.0713263 0.0716342 0.0716432 0.0713263 0.0713292 0.0713233 0.0713263 0.0710218 0.071018 0.0713263 0.0713292 0.071018 0.0710151 0.0710299 0.0710262 0.0707413 0.0707306 0.0710262 0.0710218 0.0707306 0.0707194 0.0707413 0.0707306 0.0704503 0.0704333 0.0707306 0.0707194 0.0704333 0.0704158 0.0710218 0.071018 0.0707194 0.0707093 0.071018 0.0710151 0.0707093 0.0707008 0.0707194 0.0707093 0.0704158 0.0703997 0.0707093 0.0707008 0.0703997 0.070386 0.0716432 0.0716511 0.0713292 0.0713321 0.0716511 0.0716578 0.0713321 0.0713347 0.0713292 0.0713321 0.0710151 0.0710131 0.0713321 0.0713347 0.0710131 0.0710116 0.0716578 0.0716633 0.0713347 0.0713369 0.0716633 0.0716677 0.0713369 0.0713389 0.0713347 0.0713369 0.0710116 0.0710107 0.0713369 0.0713389 0.0710107 0.0710102 0.0710151 0.0710131 0.0707008 0.070694 0.0710131 0.0710116 0.070694 0.0706887 0.0707008 0.070694 0.070386 0.0703746 0.070694 0.0706887 0.0703746 0.0703656 0.0710116 0.0710107 0.0706887 0.0706846 0.0710107 0.0710102 0.0706846 0.0706815 0.0706887 0.0706846 0.0703656 0.0703584 0.0706846 0.0706815 0.0703584 0.070353 0.0729866 0.0729973 0.0726562 0.0726652 0.0729973 0.0730052 0.0726652 0.0726719 0.0726562 0.0726652 0.0723263 0.0723336 0.0726652 0.0726719 0.0723336 0.072339 0.0730052 0.0730109 0.0726719 0.0726768 0.0730109 0.073015 0.0726768 0.0726803 0.0726719 0.0726768 0.072339 0.072343 0.0726768 0.0726803 0.072343 0.0723458 0.0723263 0.0723336 0.0719969 0.0720023 0.0723336 0.072339 0.0720023 0.0720063 0.0719969 0.0720023 0.0716677 0.0716712 0.0720023 0.0720063 0.0716712 0.0716739 0.072339 0.072343 0.0720063 0.0720093 0.072343 0.0723458 0.0720093 0.0720115 0.0720063 0.0720093 0.0716739 0.0716759 0.0720093 0.0720115 0.0716759 0.0716774 0.073015 0.0730177 0.0726803 0.0726827 0.0730177 0.0730195 0.0726827 0.0726843 0.0726803 0.0726827 0.0723458 0.0723478 0.0726827 0.0726843 0.0723478 0.0723492 0.0730195 0.0730206 0.0726843 0.0726853 0.0730206 0.0730213 0.0726853 0.0726859 0.0726843 0.0726853 0.0723492 0.07235 0.0726853 0.0726859 0.07235 0.0723506 0.0723458 0.0723478 0.0720115 0.0720131 0.0723478 0.0723492 0.0720131 0.0720141 0.0720115 0.0720131 0.0716774 0.0716785 0.0720131 0.0720141 0.0716785 0.0716792 0.0723492 0.07235 0.0720141 0.0720148 0.07235 0.0723506 0.0720148 0.0720153 0.0720141 0.0720148 0.0716792 0.0716797 0.0720148 0.0720153 0.0716797 0.07168 0.0716677 0.0716712 0.0713389 0.0713404 0.0716712 0.0716739 0.0713404 0.0713417 0.0713389 0.0713404 0.0710102 0.0710098 0.0713404 0.0713417 0.0710098 0.0710096 0.0716739 0.0716759 0.0713417 0.0713427 0.0716759 0.0716774 0.0713427 0.0713434 0.0713417 0.0713427 0.0710096 0.0710096 0.0713427 0.0713434 0.0710096 0.0710096 0.0710102 0.0710098 0.0706815 0.0706793 0.0710098 0.0710096 0.0706793 0.0706777 0.0706815 0.0706793 0.070353 0.0703489 0.0706793 0.0706777 0.0703489 0.0703458 0.0710096 0.0710096 0.0706777 0.0706766 0.0710096 0.0710096 0.0706766 0.0706758 0.0706777 0.0706766 0.0703458 0.0703436 0.0706766 0.0706758 0.0703436 0.0703421 0.0716774 0.0716785 0.0713434 0.071344 0.0716785 0.0716792 0.071344 0.0713444 0.0713434 0.071344 0.0710096 0.0710096 0.071344 0.0713444 0.0710096 0.0710096 0.0716792 0.0716797 0.0713444 0.0713447 0.0716797 0.07168 0.0713447 0.0713449 0.0713444 0.0713447 0.0710096 0.0710097 0.0713447 0.0713449 0.0710097 0.0710097 0.0710096 0.0710096 0.0706758 0.0706753 0.0710096 0.0710096 0.0706753 0.0706749 0.0706758 0.0706753 0.0703421 0.070341 0.0706753 0.0706749 0.070341 0.0703403 0.0710096 0.0710097 0.0706749 0.0706748 0.0710097 0.0710097 0.0706748 0.0706747 0.0706749 0.