# vtk DataFile Version 3.0
#This file was generated by the deal.II library on 2022/1/6 at 22:40:33
ASCII
DATASET UNSTRUCTURED_GRID

POINTS 16384 double
0 0 0
0.1875 0 0
0 0.046875 0
0.1875 0.046875 0
0.1875 0 0
0.375 0 0
0.1875 0.046875 0
0.375 0.046875 0
0 0.046875 0
0.1875 0.046875 0
0 0.09375 0
0.1875 0.09375 0
0.1875 0.046875 0
0.375 0.046875 0
0.1875 0.09375 0
0.375 0.09375 0
0.375 0 0
0.5625 0 0
0.375 0.046875 0
0.5625 0.046875 0
0.5625 0 0
0.75 0 0
0.5625 0.046875 0
0.75 0.046875 0
0.375 0.046875 0
0.5625 0.046875 0
0.375 0.09375 0
0.5625 0.09375 0
0.5625 0.046875 0
0.75 0.046875 0
0.5625 0.09375 0
0.75 0.09375 0
0 0.09375 0
0.1875 0.09375 0
0 0.140625 0
0.1875 0.140625 0
0.1875 0.09375 0
0.375 0.09375 0
0.1875 0.140625 0
0.375 0.140625 0
0 0.140625 0
0.1875 0.140625 0
0 0.1875 0
0.1875 0.1875 0
0.1875 0.140625 0
0.375 0.140625 0
0.1875 0.1875 0
0.375 0.1875 0
0.375 0.09375 0
0.5625 0.09375 0
0.375 0.140625 0
0.5625 0.140625 0
0.5625 0.09375 0
0.75 0.09375 0
0.5625 0.140625 0
0.75 0.140625 0
0.375 0.140625 0
0.5625 0.140625 0
0.375 0.1875 0
0.5625 0.1875 0
0.5625 0.140625 0
0.75 0.140625 0
0.5625 0.1875 0
0.75 0.1875 0
0.75 0 0
0.9375 0 0
0.75 0.046875 0
0.9375 0.046875 0
0.9375 0 0
1.125 0 0
0.9375 0.046875 0
1.125 0.046875 0
0.75 0.046875 0
0.9375 0.046875 0
0.75 0.09375 0
0.9375 0.09375 0
0.9375 0.046875 0
1.125 0.046875 0
0.9375 0.09375 0
1.125 0.09375 0
1.125 0 0
1.3125 0 0
1.125 0.046875 0
1.3125 0.046875 0
1.3125 0 0
1.5 0 0
1.3125 0.046875 0
1.5 0.046875 0
1.125 0.046875 0
1.3125 0.046875 0
1.125 0.09375 0
1.3125 0.09375 0
1.3125 0.046875 0
1.5 0.046875 0
1.3125 0.09375 0
1.5 0.09375 0
0.75 0.09375 0
0.9375 0.09375 0
0.75 0.140625 0
0.9375 0.140625 0
0.9375 0.09375 0
1.125 0.09375 0
0.9375 0.140625 0
1.125 0.140625 0
0.75 0.140625 0
0.9375 0.140625 0
0.75 0.1875 0
0.9375 0.1875 0
0.9375 0.140625 0
1.125 0.140625 0
0.9375 0.1875 0
1.125 0.1875 0
1.125 0.09375 0
1.3125 0.09375 0
1.125 0.140625 0
1.3125 0.140625 0
1.3125 0.09375 0
1.5 0.09375 0
1.3125 0.140625 0
1.5 0.140625 0
1.125 0.140625 0
1.3125 0.140625 0
1.125 0.1875 0
1.3125 0.1875 0
1.3125 0.140625 0
1.5 0.140625 0
1.3125 0.1875 0
1.5 0.1875 0
0 0.1875 0
0.1875 0.1875 0
0 0.234375 0
0.1875 0.234375 0
0.1875 0.1875 0
0.375 0.1875 0
0.1875 0.234375 0
0.375 0.234375 0
0 0.234375 0
0.1875 0.234375 0
0 0.28125 0
0.1875 0.28125 0
0.1875 0.234375 0
0.375 0.234375 0
0.1875 0.28125 0
0.375 0.28125 0
0.375 0.1875 0
0.5625 0.1875 0
0.375 0.234375 0
0.5625 0.234375 0
0.5625 0.1875 0
0.75 0.1875 0
0.5625 0.234375 0
0.75 0.234375 0
0.375 0.234375 0
0.5625 0.234375 0
0.375 0.28125 0
0.5625 0.28125 0
0.5625 0.234375 0
0.75 0.234375 0
0.5625 0.28125 0
0.75 0.28125 0
0 0.28125 0
0.1875 0.28125 0
0 0.328125 0
0.1875 0.328125 0
0.1875 0.28125 0
0.375 0.28125 0
0.1875 0.328125 0
0.375 0.328125 0
0 0.328125 0
0.1875 0.328125 0
0 0.375 0
0.1875 0.375 0
0.1875 0.328125 0
0.375 0.328125 0
0.1875 0.375 0
0.375 0.375 0
0.375 0.28125 0
0.5625 0.28125 0
0.375 0.328125 0
0.5625 0.328125 0
0.5625 0.28125 0
0.75 0.28125 0
0.5625 0.328125 0
0.75 0.328125 0
0.375 0.328125 0
0.5625 0.328125 0
0.375 0.375 0
0.5625 0.375 0
0.5625 0.328125 0
0.75 0.328125 0
0.5625 0.375 0
0.75 0.375 0
0.75 0.1875 0
0.9375 0.1875 0
0.75 0.234375 0
0.9375 0.234375 0
0.9375 0.1875 0
1.125 0.1875 0
0.9375 0.234375 0
1.125 0.234375 0
0.75 0.234375 0
0.9375 0.234375 0
0.75 0.28125 0
0.9375 0.28125 0
0.9375 0.234375 0
1.125 0.234375 0
0.9375 0.28125 0
1.125 0.28125 0
1.125 0.1875 0
1.3125 0.1875 0
1.125 0.234375 0
1.3125 0.234375 0
1.3125 0.1875 0
1.5 0.1875 0
1.3125 0.234375 0
1.5 0.234375 0
1.125 0.234375 0
1.3125 0.234375 0
1.125 0.28125 0
1.3125 0.28125 0
1.3125 0.234375 0
1.5 0.234375 0
1.3125 0.28125 0
1.5 0.28125 0
0.75 0.28125 0
0.9375 0.28125 0
0.75 0.328125 0
0.9375 0.328125 0
0.9375 0.28125 0
1.125 0.28125 0
0.9375 0.328125 0
1.125 0.328125 0
0.75 0.328125 0
0.9375 0.328125 0
0.75 0.375 0
0.9375 0.375 0
0.9375 0.328125 0
1.125 0.328125 0
0.9375 0.375 0
1.125 0.375 0
1.125 0.28125 0
1.3125 0.28125 0
1.125 0.328125 0
1.3125 0.328125 0
1.3125 0.28125 0
1.5 0.28125 0
1.3125 0.328125 0
1.5 0.328125 0
1.125 0.328125 0
1.3125 0.328125 0
1.125 0.375 0
1.3125 0.375 0
1.3125 0.328125 0
1.5 0.328125 0
1.3125 0.375 0
1.5 0.375 0
1.5 0 0
1.6875 0 0
1.5 0.046875 0
1.6875 0.046875 0
1.6875 0 0
1.875 0 0
1.6875 0.046875 0
1.875 0.046875 0
1.5 0.046875 0
1.6875 0.046875 0
1.5 0.09375 0
1.6875 0.09375 0
1.6875 0.046875 0
1.875 0.046875 0
1.6875 0.09375 0
1.875 0.09375 0
1.875 0 0
2.0625 0 0
1.875 0.046875 0
2.0625 0.046875 0
2.0625 0 0
2.25 0 0
2.0625 0.046875 0
2.25 0.046875 0
1.875 0.046875 0
2.0625 0.046875 0
1.875 0.09375 0
2.0625 0.09375 0
2.0625 0.046875 0
2.25 0.046875 0
2.0625 0.09375 0
2.25 0.09375 0
1.5 0.09375 0
1.6875 0.09375 0
1.5 0.140625 0
1.6875 0.140625 0
1.6875 0.09375 0
1.875 0.09375 0
1.6875 0.140625 0
1.875 0.140625 0
1.5 0.140625 0
1.6875 0.140625 0
1.5 0.1875 0
1.6875 0.1875 0
1.6875 0.140625 0
1.875 0.140625 0
1.6875 0.1875 0
1.875 0.1875 0
1.875 0.09375 0
2.0625 0.09375 0
1.875 0.140625 0
2.0625 0.140625 0
2.0625 0.09375 0
2.25 0.09375 0
2.0625 0.140625 0
2.25 0.140625 0
1.875 0.140625 0
2.0625 0.140625 0
1.875 0.1875 0
2.0625 0.1875 0
2.0625 0.140625 0
2.25 0.140625 0
2.0625 0.1875 0
2.25 0.1875 0
2.25 0 0
2.4375 0 0
2.25 0.046875 0
2.4375 0.046875 0
2.4375 0 0
2.625 0 0
2.4375 0.046875 0
2.625 0.046875 0
2.25 0.046875 0
2.4375 0.046875 0
2.25 0.09375 0
2.4375 0.09375 0
2.4375 0.046875 0
2.625 0.046875 0
2.4375 0.09375 0
2.625 0.09375 0
2.625 0 0
2.8125 0 0
2.625 0.046875 0
2.8125 0.046875 0
2.8125 0 0
3 0 0
2.8125 0.046875 0
3 0.046875 0
2.625 0.046875 0
2.8125 0.046875 0
2.625 0.09375 0
2.8125 0.09375 0
2.8125 0.046875 0
3 0.046875 0
2.8125 0.09375 0
3 0.09375 0
2.25 0.09375 0
2.4375 0.09375 0
2.25 0.140625 0
2.4375 0.140625 0
2.4375 0.09375 0
2.625 0.09375 0
2.4375 0.140625 0
2.625 0.140625 0
2.25 0.140625 0
2.4375 0.140625 0
2.25 0.1875 0
2.4375 0.1875 0
2.4375 0.140625 0
2.625 0.140625 0
2.4375 0.1875 0
2.625 0.1875 0
2.625 0.09375 0
2.8125 0.09375 0
2.625 0.140625 0
2.8125 0.140625 0
2.8125 0.09375 0
3 0.09375 0
2.8125 0.140625 0
3 0.140625 0
2.625 0.140625 0
2.8125 0.140625 0
2.625 0.1875 0
2.8125 0.1875 0
2.8125 0.140625 0
3 0.140625 0
2.8125 0.1875 0
3 0.1875 0
1.5 0.1875 0
1.6875 0.1875 0
1.5 0.234375 0
1.6875 0.234375 0
1.6875 0.1875 0
1.875 0.1875 0
1.6875 0.234375 0
1.875 0.234375 0
1.5 0.234375 0
1.6875 0.234375 0
1.5 0.28125 0
1.6875 0.28125 0
1.6875 0.234375 0
1.875 0.234375 0
1.6875 0.28125 0
1.875 0.28125 0
1.875 0.1875 0
2.0625 0.1875 0
1.875 0.234375 0
2.0625 0.234375 0
2.0625 0.1875 0
2.25 0.1875 0
2.0625 0.234375 0
2.25 0.234375 0
1.875 0.234375 0
2.0625 0.234375 0
1.875 0.28125 0
2.0625 0.28125 0
2.0625 0.234375 0
2.25 0.234375 0
2.0625 0.28125 0
2.25 0.28125 0
1.5 0.28125 0
1.6875 0.28125 0
1.5 0.328125 0
1.6875 0.328125 0
1.6875 0.28125 0
1.875 0.28125 0
1.6875 0.328125 0
1.875 0.328125 0
1.5 0.328125 0
1.6875 0.328125 0
1.5 0.375 0
1.6875 0.375 0
1.6875 0.328125 0
1.875 0.328125 0
1.6875 0.375 0
1.875 0.375 0
1.875 0.28125 0
2.0625 0.28125 0
1.875 0.328125 0
2.0625 0.328125 0
2.0625 0.28125 0
2.25 0.28125 0
2.0625 0.328125 0
2.25 0.328125 0
1.875 0.328125 0
2.0625 0.328125 0
1.875 0.375 0
2.0625 0.375 0
2.0625 0.328125 0
2.25 0.328125 0
2.0625 0.375 0
2.25 0.375 0
2.25 0.1875 0
2.4375 0.1875 0
2.25 0.234375 0
2.4375 0.234375 0
2.4375 0.1875 0
2.625 0.1875 0
2.4375 0.234375 0
2.625 0.234375 0
2.25 0.234375 0
2.4375 0.234375 0
2.25 0.28125 0
2.4375 0.28125 0
2.4375 0.234375 0
2.625 0.234375 0
2.4375 0.28125 0
2.625 0.28125 0
2.625 0.1875 0
2.8125 0.1875 0
2.625 0.234375 0
2.8125 0.234375 0
2.8125 0.1875 0
3 0.1875 0
2.8125 0.234375 0
3 0.234375 0
2.625 0.234375 0
2.8125 0.234375 0
2.625 0.28125 0
2.8125 0.28125 0
2.8125 0.234375 0
3 0.234375 0
2.8125 0.28125 0
3 0.28125 0
2.25 0.28125 0
2.4375 0.28125 0
2.25 0.328125 0
2.4375 0.328125 0
2.4375 0.28125 0
2.625 0.28125 0
2.4375 0.328125 0
2.625 0.328125 0
2.25 0.328125 0
2.4375 0.328125 0
2.25 0.375 0
2.4375 0.375 0
2.4375 0.328125 0
2.625 0.328125 0
2.4375 0.375 0
2.625 0.375 0
2.625 0.28125 0
2.8125 0.28125 0
2.625 0.328125 0
2.8125 0.328125 0
2.8125 0.28125 0
3 0.28125 0
2.8125 0.328125 0
3 0.328125 0
2.625 0.328125 0
2.8125 0.328125 0
2.625 0.375 0
2.8125 0.375 0
2.8125 0.328125 0
3 0.328125 0
2.8125 0.375 0
3 0.375 0
0 0.375 0
0.1875 0.375 0
0 0.421875 0
0.1875 0.421875 0
0.1875 0.375 0
0.375 0.375 0
0.1875 0.421875 0
0.375 0.421875 0
0 0.421875 0
0.1875 0.421875 0
0 0.46875 0
0.1875 0.46875 0
0.1875 0.421875 0
0.375 0.421875 0
0.1875 0.46875 0
0.375 0.46875 0
0.375 0.375 0
0.5625 0.375 0
0.375 0.421875 0
0.5625 0.421875 0
0.5625 0.375 0
0.75 0.375 0
0.5625 0.421875 0
0.75 0.421875 0
0.375 0.421875 0
0.5625 0.421875 0
0.375 0.46875 0
0.5625 0.46875 0
0.5625 0.421875 0
0.75 0.421875 0
0.5625 0.46875 0
0.75 0.46875 0
0 0.46875 0
0.1875 0.46875 0
0 0.515625 0
0.1875 0.515625 0
0.1875 0.46875 0
0.375 0.46875 0
0.1875 0.515625 0
0.375 0.515625 0
0 0.515625 0
0.1875 0.515625 0
0 0.5625 0
0.1875 0.5625 0
0.1875 0.515625 0
0.375 0.515625 0
0.1875 0.5625 0
0.375 0.5625 0
0.375 0.46875 0
0.5625 0.46875 0
0.375 0.515625 0
0.5625 0.515625 0
0.5625 0.46875 0
0.75 0.46875 0
0.5625 0.515625 0
0.75 0.515625 0
0.375 0.515625 0
0.5625 0.515625 0
0.375 0.5625 0
0.5625 0.5625 0
0.5625 0.515625 0
0.75 0.515625 0
0.5625 0.5625 0
0.75 0.5625 0
0.75 0.375 0
0.9375 0.375 0
0.75 0.421875 0
0.9375 0.421875 0
0.9375 0.375 0
1.125 0.375 0
0.9375 0.421875 0
1.125 0.421875 0
0.75 0.421875 0
0.9375 0.421875 0
0.75 0.46875 0
0.9375 0.46875 0
0.9375 0.421875 0
1.125 0.421875 0
0.9375 0.46875 0
1.125 0.46875 0
1.125 0.375 0
1.3125 0.375 0
1.125 0.421875 0
1.3125 0.421875 0
1.3125 0.375 0
1.5 0.375 0
1.3125 0.421875 0
1.5 0.421875 0
1.125 0.421875 0
1.3125 0.421875 0
1.125 0.46875 0
1.3125 0.46875 0
1.3125 0.421875 0
1.5 0.421875 0
1.3125 0.46875 0
1.5 0.46875 0
0.75 0.46875 0
0.9375 0.46875 0
0.75 0.515625 0
0.9375 0.515625 0
0.9375 0.46875 0
1.125 0.46875 0
0.9375 0.515625 0
1.125 0.515625 0
0.75 0.515625 0
0.9375 0.515625 0
[...]
POINT_DATA 16384
SCALARS x_displacement double 1
LOOKUP_TABLE default
0 0.0313291 0 0.0283118 0.0313291 0.0547414 0.0283118 0.0535807 0 0.0283118 0 0.026221 0.0283118 0.0535807 0.026221 0.0512547 0.0547414 0.0680755 0.0535807 0.0672532 0.0680755 0.071169 0.0672532 0.0707669 0.0535807 0.0672532 0.0512547 0.0656795 0.0672532 0.0707669 0.0656795 0.0698797 0 0.026221 0 0.0244618 0.026221 0.0512547 0.0244618 0.0480553 0 0.0244618 0 0.0229593 0.0244618 0.0480553 0.0229593 0.04473 0.0512547 0.0656795 0.0480553 0.0632636 0.0656795 0.0698797 0.0632636 0.0685473 0.0480553 0.0632636 0.04473 0.0598613 0.0632636 0.0685473 0.0598613 0.0669051 0.071169 0.0734506 0.0707669 0.0734182 0.0734506 0.0759993 0.0734182 0.076206 0.0707669 0.0734182 0.0698797 0.0731198 0.0734182 0.076206 0.0731198 0.0762162 0.0759993 0.0784754 0.076206 0.0787243 0.0784754 0.0806322 0.0787243 0.0808525 0.076206 0.0787243 0.0762162 0.078843 0.0787243 0.0808525 0.078843 0.0809829 0.0698797 0.0731198 0.0685473 0.0725974 0.0731198 0.0762162 0.0725974 0.0760582 0.0685473 0.0725974 0.0669051 0.0718994 0.0725974 0.0760582 0.0718994 0.075754 0.0762162 0.078843 0.0760582 0.0788403 0.078843 0.0809829 0.0788403 0.0810288 0.0760582 0.0788403 0.075754 0.0787298 0.0788403 0.0810288 0.0787298 0.0809961 0 0.0229593 0 0.0216723 0.0229593 0.04473 0.0216723 0.0415816 0 0.0216723 0 0.0205277 0.0216723 0.0415816 0.0205277 0.0390882 0.04473 0.0598613 0.0415816 0.0563573 0.0598613 0.0669051 0.0563573 0.0651917 0.0415816 0.0563573 0.0390882 0.0535611 0.0563573 0.0651917 0.0535611 0.0634462 0 0.0205277 0 0.0195577 0.0205277 0.0390882 0.0195577 0.0371126 0 0.0195577 0 0.0187566 0.0195577 0.0371126 0.0187566 0.0355395 0.0390882 0.0535611 0.0371126 0.0513336 0.0535611 0.0634462 0.0513336 0.0617984 0.0371126 0.0513336 0.0355395 0.0495176 0.0513336 0.0617984 0.0495176 0.0603 0.0669051 0.0718994 0.0651917 0.0710501 0.0718994 0.075754 0.0710501 0.075332 0.0651917 0.0710501 0.0634462 0.0701085 0.0710501 0.075332 0.0701085 0.0748139 0.075754 0.0787298 0.075332 0.0785241 0.0787298 0.0809961 0.0785241 0.0808915 0.075332 0.0785241 0.0748139 0.0782372 0.0785241 0.0808915 0.0782372 0.0807226 0.0634462 0.0701085 0.0617984 0.0691095 0.0701085 0.0748139 0.0691095 0.0742247 0.0617984 0.0691095 0.0603 0.068096 0.0691095 0.0742247 0.068096 0.0735843 0.0748139 0.0782372 0.0742247 0.0778819 0.0782372 0.0807226 0.0778819 0.080497 0.0742247 0.0778819 0.0735843 0.0774718 0.0778819 0.080497 0.0774718 0.0802223 0.0806322 0.0824236 0.0808525 0.0825824 0.0824236 0.0838752 0.0825824 0.083959 0.0808525 0.0825824 0.0809829 0.0826801 0.0825824 0.083959 0.0826801 0.0840028 0.0838752 0.0850356 0.083959 0.085043 0.0850356 0.0859576 0.085043 0.0858938 0.083959 0.085043 0.0840028 0.0850258 0.085043 0.0858938 0.0850258 0.0858164 0.0809829 0.0826801 0.0810288 0.0827189 0.0826801 0.0840028 0.0827189 0.0840072 0.0810288 0.0827189 0.0809961 0.0827019 0.0827189 0.0840072 0.0827019 0.083973 0.0840028 0.0850258 0.0840072 0.0849834 0.0850258 0.0858164 0.0849834 0.0857242 0.0840072 0.0849834 0.083973 0.0849157 0.0849834 0.0857242 0.0849157 0.0856167 0.0859576 0.0866888 0.0858938 0.0865626 0.0866888 0.0872691 0.0865626 0.0870906 0.0858938 0.0865626 0.0858164 0.0864303 0.0865626 0.0870906 0.0864303 0.0869109 0.0872691 0.0877303 0.0870906 0.0875093 0.0877303 0.0880968 0.0875093 0.0878427 0.0870906 0.0875093 0.0869109 0.0872904 0.0875093 0.0878427 0.0872904 0.0875922 0.0858164 0.0864303 0.0857242 0.0862907 0.0864303 0.0869109 0.0862907 0.0867289 0.0857242 0.0862907 0.0856167 0.0861428 0.0862907 0.0867289 0.0861428 0.0865434 0.0869109 0.0872904 0.0867289 0.0870722 0.0872904 0.0875922 0.0870722 0.0873443 0.0867289 0.0870722 0.0865434 0.0868538 0.0870722 0.0873443 0.0868538 0.0870981 0.0809961 0.0827019 0.0808915 0.0826324 0.0827019 0.083973 0.0826324 0.0839018 0.0808915 0.0826324 0.0807226 0.0825145 0.0826324 0.0839018 0.0825145 0.0837955 0.083973 0.0849157 0.0839018 0.0848231 0.0849157 0.0856167 0.0848231 0.0854932 0.0839018 0.0848231 0.0837955 0.084706 0.0848231 0.0854932 0.084706 0.0853538 0.0807226 0.0825145 0.080497 0.0823523 0.0825145 0.0837955 0.0823523 0.0836561 0.080497 0.0823523 0.0802223 0.0821502 0.0823523 0.0836561 0.0821502 0.0834863 0.0837955 0.084706 0.0836561 0.0845655 0.084706 0.0853538 0.0845655 0.0851984 0.0836561 0.0845655 0.0834863 0.0844025 0.0845655 0.0851984 0.0844025 0.0850274 0.0856167 0.0861428 0.0854932 0.0859856 0.0861428 0.0865434 0.0859856 0.0863535 0.0854932 0.0859856 0.0853538 0.0858188 0.0859856 0.0863535 0.0858188 0.0861583 0.0865434 0.0868538 0.0863535 0.0866341 0.0868538 0.0870981 0.0866341 0.0868526 0.0863535 0.0866341 0.0861583 0.0864123 0.0866341 0.0868526 0.0864123 0.086607 0.0853538 0.0858188 0.0851984 0.0856418 0.0858188 0.0861583 0.0856418 0.0859574 0.0851984 0.0856418 0.0850274 0.0854545 0.0856418 0.0859574 0.0854545 0.0857502 0.0861583 0.0864123 0.0859574 0.0861877 0.0864123 0.086607 0.0861877 0.0863607 0.0859574 0.0861877 0.0857502 0.0859598 0.0861877 0.0863607 0.0859598 0.0861131 0 0.0187566 0 0.0181037 0.0187566 0.0355395 0.0181037 0.0342782 0 0.0181037 0 0.0175739 0.0181037 0.0342782 0.0175739 0.0332597 0.0355395 0.0495176 0.0342782 0.0480168 0.0495176 0.0603 0.0480168 0.0589582 0.0342782 0.0480168 0.0332597 0.0467649 0.0480168 0.0589582 0.0467649 0.0577649 0 0.0175739 0 0.0171439 0.0175739 0.0332597 0.0171439 0.0324312 0 0.0171439 0 0.0167937 0.0171439 0.0324312 0.0167937 0.0317522 0.0332597 0.0467649 0.0324312 0.0457129 0.0467649 0.0577649 0.0457129 0.0567068 0.0324312 0.0457129 0.0317522 0.0448234 0.0457129 0.0567068 0.0448234 0.0557694 0.0603 0.068096 0.0589582 0.0671023 0.068096 0.0735843 0.0671023 0.0729119 0.0589582 0.0671023 0.0577649 0.0661497 0.0671023 0.0729119 0.0661497 0.0722251 0.0735843 0.0774718 0.0729119 0.077019 0.0774718 0.0802223 0.077019 0.0799063 0.0729119 0.077019 0.0722251 0.0765347 0.077019 0.0799063 0.0765347 0.0795562 0.0577649 0.0661497 0.0567068 0.0652502 0.0661497 0.0722251 0.0652502 0.0715384 0.0567068 0.0652502 0.0557694 0.0644096 0.0652502 0.0715384 0.0644096 0.0708627 0.0722251 0.0765347 0.0715384 0.0760289 0.0765347 0.0795562 0.0760289 0.0791789 0.0715384 0.0760289 0.0708627 0.0755107 0.0760289 0.0791789 0.0755107 0.0787808 0 0.0167937 0 0.0165066 0.0167937 0.0317522 0.0165066 0.0311914 0 0.0165066 0 0.0162697 0.0165066 0.0311914 0.0162697 0.0307245 0.0317522 0.0448234 0.0311914 0.0440667 0.0448234 0.0557694 0.0440667 0.0549388 0.0311914 0.0440667 0.0307245 0.0434192 0.0440667 0.0549388 0.0434192 0.0542019 0 0.0162697 0 0.0160726 0.0162697 0.0307245 0.0160726 0.0303325 0 0.0160726 0 0.0159071 0.0160726 0.0303325 0.0159071 0.0300007 0.0307245 0.0434192 0.0303325 0.0428619 0.0434192 0.0542019 0.0428619 0.0535468 0.0303325 0.0428619 0.0300007 0.0423794 0.0428619 0.0535468 0.0423794 0.052963 0.0557694 0.0644096 0.0549388 0.0636291 0.0644096 0.0708627 0.0636291 0.0702061 0.0549388 0.0636291 0.0542019 0.0629078 0.0636291 0.0702061 0.0629078 0.0695739 0.0708627 0.0755107 0.0702061 0.0749878 0.0755107 0.0787808 0.0749878 0.0783676 0.0702061 0.0749878 0.0695739 0.0744664 0.0749878 0.0783676 0.0744664 0.0779446 0.0542019 0.0629078 0.0535468 0.0622429 0.0629078 0.0695739 0.0622429 0.0689696 0.0535468 0.0622429 0.052963 0.0616312 0.0622429 0.0689696 0.0616312 0.0683949 0.0695739 0.0744664 0.0689696 0.0739515 0.0744664 0.0779446 0.0739515 0.0775161 0.0689696 0.0739515 0.0683949 0.0734471 0.0739515 0.0775161 0.0734471 0.0770861 0.0802223 0.0821502 0.0799063 0.0819129 0.0821502 0.0834863 0.0819129 0.0832883 0.0799063 0.0819129 0.0795562 0.0816449 0.0819129 0.0832883 0.0816449 0.0830651 0.0834863 0.0844025 0.0832883 0.0842184 0.0844025 0.0850274 0.0842184 0.0848411 0.0832883 0.0842184 0.0830651 0.0840147 0.0842184 0.0848411 0.0840147 0.0846403 0.0795562 0.0816449 0.0791789 0.0813506 0.0816449 0.0830651 0.0813506 0.0828192 0.0791789 0.0813506 0.0787808 0.0810342 0.0813506 0.0828192 0.0810342 0.0825534 0.0830651 0.0840147 0.0828192 0.0837927 0.0840147 0.0846403 0.0837927 0.0844257 0.0828192 0.0837927 0.0825534 0.0835541 0.0837927 0.0844257 0.0835541 0.084198 0.0850274 0.0854545 0.0848411 0.0852568 0.0854545 0.0857502 0.0852568 0.0855363 0.0848411 0.0852568 0.0846403 0.0850489 0.0852568 0.0855363 0.0850489 0.0853157 0.0857502 0.0859598 0.0855363 0.085728 0.0859598 0.0861131 0.085728 0.0858636 0.0855363 0.085728 0.0853157 0.085492 0.085728 0.0858636 0.085492 0.0856118 0.0846403 0.0850489 0.0844257 0.0848309 0.0850489 0.0853157 0.0848309 0.085088 0.0844257 0.0848309 0.084198 0.0846032 0.0848309 0.085088 0.0846032 0.0848534 0.0853157 0.085492 0.085088 0.0852515 0.085492 0.0856118 0.0852515 0.0853573 0.085088 0.0852515 0.0848534 0.0850063 0.0852515 0.0853573 0.0850063 0.0850998 0.0787808 0.0810342 0.0783676 0.0806999 0.0810342 0.0825534 0.0806999 0.0822703 0.0783676 0.0806999 0.0779446 0.0803514 0.0806999 0.0822703 0.0803514 0.0819726 0.0825534 0.0835541 0.0822703 0.0833006 0.0835541 0.084198 0.0833006 0.0839582 0.0822703 0.0833006 0.0819726 0.0830338 0.0833006 0.0839582 0.0830338 0.0837072 0.0779446 0.0803514 0.0775161 0.0799921 0.0803514 0.0819726 0.0799921 0.0816625 0.0775161 0.0799921 0.0770861 0.0796251 0.0799921 0.0816625 0.0796251 0.0813424 0.0819726 0.0830338 0.0816625 0.0827552 0.0830338 0.0837072 0.0827552 0.0834458 0.0816625 0.0827552 0.0813424 0.0824664 0.0827552 0.0834458 0.0824664 0.0831752 0.084198 0.0846032 0.0839582 0.084366 0.0846032 0.0848534 0.084366 0.0846119 0.0839582 0.084366 0.0837072 0.08412 0.084366 0.0846119 0.08412 0.0843635 0.0848534 0.0850063 0.0846119 0.0847561 0.0850063 0.0850998 0.0847561 0.0848389 0.0846119 0.0847561 0.0843635 0.084501 0.0847561 0.0848389 0.084501 0.0845746 0.0837072 0.08412 0.0834458 0.0838654 0.08412 0.0843635 0.0838654 0.0841085 0.0834458 0.0838654 0.0831752 0.083603 0.0838654 0.0841085 0.083603 0.083847 0.0843635 0.084501 0.0841085 0.0842408 0.084501 0.0845746 0.0842408 0.0843066 0.0841085 0.0842408 0.083847 0.0839756 0.0842408 0.0843066 0.0839756 0.0840348 0.0880968 0.0883877 0.0878427 0.0881083 0.0883877 0.0886177 0.0881083 0.0883195 0.0878427 0.0881083 0.0875922 0.0878332 0.0881083 0.0883195 0.0878332 0.0880257 0.0886177 0.0887984 0.0883195 0.0884865 0.0887984 0.088939 0.0884865 0.0886176 0.0883195 0.0884865 0.0880257 0.0881789 0.0884865 0.0886176 0.0881789 0.0882998 0.0875922 0.0878332 0.0873443 0.0875616 0.0878332 0.0880257 0.0875616 0.0877357 0.0873443 0.0875616 0.0870981 0.0872927 0.0875616 0.0877357 0.0872927 0.0874487 0.0880257 0.0881789 0.0877357 0.0878748 0.0881789 0.0882998 0.0878748 0.0879854 0.0877357 0.0878748 0.0874487 0.0875739 0.0878748 0.0879854 0.0875739 0.0876739 0.088939 0.0890473 0.0886176 0.0887193 0.0890473 0.0891296 0.0887193 0.0887972 0.0886176 0.0887193 0.0882998 0.0883945 0.0887193 0.0887972 0.0883945 0.0884675 0.0891296 0.0891911 0.0887972 0.088856 0.0891911 0.0892363 0.088856 0.0888996 0.0887972 0.088856 0.0884675 0.0885231 0.088856 0.0888996 0.0885231 0.0885647 0.0882998 0.0883945 0.0879854 0.0880725 0.0883945 0.0884675 0.0880725 0.0881402 0.0879854 0.0880725 0.0876739 0.0877531 0.0880725 0.0881402 0.0877531 0.0878151 0.0884675 0.0885231 0.0881402 0.0881921 0.0885231 0.0885647 0.0881921 0.0882312 0.0881402 0.0881921 0.0878151 0.0878629 0.0881921 0.0882312 0.0878629 0.0878993 0.0870981 0.0872927 0.0868526 0.0870256 0.0872927 0.0874487 0.0870256 0.0871641 0.0868526 0.0870256 0.086607 0.0867597 0.0870256 0.0871641 0.0867597 0.0868814 0.0874487 0.0875739 0.0871641 0.0872755 0.0875739 0.0876739 0.0872755 0.0873648 0.0871641 0.0872755 0.0868814 0.0869792 0.0872755 0.0873648 0.0869792 0.0870578 0.086607 0.0867597 0.0863607 0.0864944 0.0867597 0.0868814 0.0864944 0.0866 0.0863607 0.0864944 0.0861131 0.0862291 0.0864944 0.0866 0.0862291 0.0863194 0.0868814 0.0869792 0.0866 0.0866846 0.0869792 0.0870578 0.0866846 0.0867526 0.0866 0.0866846 0.0863194 0.0863911 0.0866846 0.0867526 0.0863911 0.0864487 0.0876739 0.0877531 0.0873648 0.0874359 0.0877531 0.0878151 0.0874359 0.0874919 0.0873648 0.0874359 0.0870578 0.0871207 0.0874359 0.0874919 0.0871207 0.0871704 0.0878151 0.0878629 0.0874919 0.0875354 0.0878629 0.0878993 0.0875354 0.0875687 0.0874919 0.0875354 0.0871704 0.0872093 0.0875354 0.0875687 0.0872093 0.0872393 0.0870578 0.0871207 0.0867526 0.0868071 0.0871207 0.0871704 0.0868071 0.0868505 0.0867526 0.0868071 0.0864487 0.0864949 0.0868071 0.0868505 0.0864949 0.0865318 0.0871704 0.0872093 0.0868505 0.0868846 0.0872093 0.0872393 0.0868846 0.086911 0.0868505 0.0868846 0.0865318 0.0865609 0.0868846 0.086911 0.0865609 0.0865836 0.0892363 0.0892689 0.0888996 0.0889314 0.0892689 0.0892918 0.0889314 0.0889539 0.0888996 0.0889314 0.0885647 0.0885952 0.0889314 0.0889539 0.0885952 0.0886171 0.0892918 0.0893074 0.0889539 0.0889696 0.0893074 0.0893176 0.0889696 0.08898 0.0889539 0.0889696 0.0886171 0.0886325 0.0889696 0.08898 0.0886325 0.0886429 0.0885647 0.0885952 0.0882312 0.0882602 0.0885952 0.0886171 0.0882602 0.0882813 0.0882312 0.0882602 0.0878993 0.0879264 0.0882602 0.0882813 0.0879264 0.0879463 0.0886171 0.0886325 0.0882813 0.0882961 0.0886325 0.0886429 0.0882961 0.0883064 0.0882813 0.0882961 0.0879463 0.0879605 0.0882961 0.0883064 0.0879605 0.0879703 0.0893176 0.089324 0.08898 0.0889867 0.089324 0.0893277 0.0889867 0.0889907 0.08898 0.0889867 0.0886429 0.0886497 0.0889867 0.0889907 0.0886497 0.0886539 0.0893277 0.0893295 0.0889907 0.0889928 0.0893295 0.08933 0.0889928 0.0889937 0.0889907 0.0889928 0.0886539 0.0886563 0.0889928 0.0889937 0.0886563 0.0886574 0.0886429 0.0886497 0.0883064 0.0883132 0.0886497 0.0886539 0.0883132 0.0883175 0.0883064 0.0883132 0.0879703 0.087977 0.0883132 0.0883175 0.087977 0.0879813 0.0886539 0.0886563 0.0883175 0.08832 0.0886563 0.0886574 0.08832 0.0883213 0.0883175 0.08832 0.0879813 0.0879839 0.08832 0.0883213 0.0879839 0.0879853 0.0878993 0.0879264 0.0875687 0.0875937 0.0879264 0.0879463 0.0875937 0.0876121 0.0875687 0.0875937 0.0872393 0.0872619 0.0875937 0.0876121 0.0872619 0.0872788 0.0879463 0.0879605 0.0876121 0.0876254 0.0879605 0.0879703 0.0876254 0.0876348 0.0876121 0.0876254 0.0872788 0.087291 0.0876254 0.0876348 0.087291 0.0872997 0.0872393 0.0872619 0.086911 0.0869311 0.0872619 0.0872788 0.0869311 0.0869461 0.086911 0.0869311 0.0865836 0.086601 0.0869311 0.0869461 0.086601 0.0866141 0.0872788 0.087291 0.0869461 0.0869571 0.087291 0.0872997 0.0869571 0.086965 0.0869461 0.0869571 0.0866141 0.0866237 0.0869571 0.086965 0.0866237 0.0866307 0.0879703 0.087977 0.0876348 0.0876411 0.087977 0.0879813 0.0876411 0.0876453 0.0876348 0.0876411 0.0872997 0.0873056 0.0876411 0.0876453 0.0873056 0.0873096 0.0879813 0.0879839 0.0876453 0.0876479 0.0879839 0.0879853 0.0876479 0.0876494 0.0876453 0.0876479 0.0873096 0.0873121 0.0876479 0.0876494 0.0873121 0.0873136 0.0872997 0.0873056 0.086965 0.0869705 0.0873056 0.0873096 0.0869705 0.0869742 0.086965 0.0869705 0.0866307 0.0866356 0.0869705 0.0869742 0.0866356 0.0866389 0.0873096 0.0873121 0.0869742 0.0869765 0.0873121 0.0873136 0.0869765 0.086978 0.0869742 0.0869765 0.0866389 0.0866411 0.0869765 0.086978 0.0866411 0.0866424 0.0861131 0.0862291 0.0858636 0.0859632 0.0862291 0.0863194 0.0859632 0.086039 0.0858636 0.0859632 0.0856118 0.0856963 0.0859632 0.086039 0.0856963 0.0857585 0.0863194 0.0863911 0.086039 0.0860984 0.0863911 0.0864487 0.0860984 0.0861458 0.086039 0.0860984 0.0857585 0.0858061 0.0860984 0.0861458 0.0858061 0.0858436 0.0856118 0.0856963 0.0853573 0.085428 0.0856963 0.0857585 0.085428 0.0854775 0.0853573 0.085428 0.0850998 0.085158 0.085428 0.0854775 0.085158 0.0851957 0.0857585 0.0858061 0.0854775 0.0855139 0.0858061 0.0858436 0.0855139 0.0855417 0.0854775 0.0855139 0.0851957 0.0852214 0.0855139 0.0855417 0.0852214 0.08524 0.0864487 0.0864949 0.0861458 0.0861837 0.0864949 0.0865318 0.0861837 0.0862141 0.0861458 0.0861837 0.0858436 0.0858734 0.0861837 0.0862141 0.0858734 0.0858973 0.0865318 0.0865609 0.0862141 0.0862382 0.0865609 0.0865836 0.0862382 0.0862571 0.0862141 0.0862382 0.0858973 0.0859163 0.0862382 0.0862571 0.0859163 0.0859312 0.0858436 0.0858734 0.0855417 0.0855636 0.0858734 0.0858973 0.0855636 0.0855811 0.0855417 0.0855636 0.08524 0.0852542 0.0855636 0.0855811 0.0852542 0.0852653 0.0858973 0.0859163 0.0855811 0.085595 0.0859163 0.0859312 0.085595 0.0856059 0.0855811 0.085595 0.0852653 0.0852741 0.085595 0.0856059 0.0852741 0.0852811 0.0850998 0.085158 0.0848389 0.0848859 0.085158 0.0851957 0.0848859 0.0849126 0.0848389 0.0848859 0.0845746 0.0846114 0.0848859 0.0849126 0.0846114 0.0846281 0.0851957 0.0852214 0.0849126 0.0849283 0.0852214 0.08524 0.0849283 0.0849382 0.0849126 0.0849283 0.0846281 0.0846344 0.0849283 0.0849382 0.0846344 0.0846359 0.0845746 0.0846114 0.0843066 0.0843344 0.0846114 0.0846281 0.0843344 0.0843418 0.0843066 0.0843344 0.0840348 0.0840546 0.0843344 0.0843418 0.0840546 0.0840536 0.0846281 0.0846344 0.0843418 0.0843394 0.0846344 0.0846359 0.0843394 0.084333 0.0843418 0.0843394 0.0840536 0.0840431 0.0843394 0.084333 0.0840431 0.0840292 0.08524 0.0852542 0.0849382 0.0849448 0.0852542 0.0852653 0.0849448 0.0849497 0.0849382 0.0849448 0.0846359 0.0846354 0.0849448 0.0849497 0.0846354 0.0846343 0.0852653 0.0852741 0.0849497 0.0849536 0.0852741 0.0852811 0.0849536 0.0849566 0.0849497 0.0849536 0.0846343 0.0846332 0.0849536 0.0849566 0.0846332 0.0846323 0.0846359 0.0846354 0.084333 0.0843256 0.0846354 0.0846343 0.0843256 0.0843187 0.084333 0.0843256 0.0840292 0.0840152 0.0843256 0.0843187 0.0840152 0.0840028 0.0846343 0.0846332 0.0843187 0.0843128 0.0846332 0.0846323 0.0843128 0.0843081 0.0843187 0.0843128 0.0840028 0.0839923 0.0843128 0.0843081 0.0839923 0.0839839 0.0865836 0.086601 0.0862571 0.0862716 0.086601 0.0866141 0.0862716 0.0862826 0.0862571 0.0862716 0.0859312 0.0859428 0.0862716 0.0862826 0.0859428 0.0859516 0.0866141 0.0866237 0.0862826 0.0862908 0.0866237 0.0866307 0.0862908 0.0862967 0.0862826 0.0862908 0.0859516 0.0859583 0.0862908 0.0862967 0.0859583 0.0859631 0.0859312 0.0859428 0.0856059 0.0856145 0.0859428 0.0859516 0.0856145 0.0856211 0.0856059 0.0856145 0.0852811 0.0852866 0.0856145 0.0856211 0.0852866 0.0852909 0.0859516 0.0859583 0.0856211 0.0856261 0.0859583 0.0859631 0.0856261 0.0856298 0.0856211 0.0856261 0.0852909 0.0852942 0.0856261 0.0856298 0.0852942 0.0852967 0.0866307 0.0866356 0.0862967 0.086301 0.0866356 0.0866389 0.086301 0.0863039 0.0862967 0.086301 0.0859631 0.0859666 0.086301 0.0863039 0.0859666 0.085969 0.0866389 0.0866411 0.0863039 0.0863058 0.0866411 0.0866424 0.0863058 0.086307 0.0863039 0.0863058 0.085969 0.0859706 0.0863058 0.086307 0.0859706 0.0859717 0.0859631 0.0859666 0.0856298 0.0856324 0.0859666 0.085969 0.0856324 0.0856343 0.0856298 0.0856324 0.0852967 0.0852985 0.0856324 0.0856343 0.0852985 0.0852998 0.085969 0.0859706 0.0856343 0.0856356 0.0859706 0.0859717 0.0856356 0.0856364 0.0856343 0.0856356 0.0852998 0.0853007 0.0856356 0.0856364 0.0853007 0.0853013 0.0852811 0.0852866 0.0849566 0.0849591 0.0852866 0.0852909 0.0849591 0.084961 0.0849566 0.0849591 0.0846323 0.0846317 0.0849591 0.084961 0.0846317 0.0846314 0.0852909 0.0852942 0.084961 0.0849626 0.0852942 0.0852967 0.0849626 0.0849638 0.084961 0.0849626 0.0846314 0.0846312 0.0849626 0.0849638 0.0846312 0.0846311 0.0846323 0.0846317 0.0843081 0.0843045 0.0846317 0.0846314 0.0843045 0.0843018 0.0843081 0.0843045 0.0839839 0.0839773 0.0843045 0.0843018 0.0839773 0.0839724 0.0846314 0.0846312 0.0843018 0.0842999 0.0846312 0.0846311 0.0842999 0.0842985 0.0843018 0.0842999 0.0839724 0.0839687 0.0842999 0.0842985 0.0839687 0.083966 0.0852967 0.0852985 0.0849638 0.0849647 0.0852985 0.0852998 0.0849647 0.0849654 0.0849638 0.0849647 0.0846311 0.0846311 0.0849647 0.0849654 0.0846311 0.0846311 0.0852998 0.0853007 0.0849654 0.0849659 0.0853007 0.0853013 0.0849659 0.0849662 0.0849654 0.0849659 0.0846311 0.0846312 0.0849659 0.0849662 0.0846312 0.0846313 0.0846311 0.0846311 0.0842985 0.0842976 0.0846311 0.0846311 0.0842976 0.0842969 0.0842985 0.0842976 0.083966 0.0839641 0.0842976 0.0842969 0.0839641 0.0839629 0.0846311 0.0846312 0.0842969 0.0842966 0.0846312 0.0846313 0.0842966 0.0842963 0.