# vtk DataFile Version 3.0
#This file was generated by the deal.II library on 2022/1/6 at 22:34:20
ASCII
DATASET UNSTRUCTURED_GRID

POINTS 16384 double
0 0 0
0.1875 0 0
0 0.046875 0
0.1875 0.046875 0
0.1875 0 0
0.375 0 0
0.1875 0.046875 0
0.375 0.046875 0
0 0.046875 0
0.1875 0.046875 0
0 0.09375 0
0.1875 0.09375 0
0.1875 0.046875 0
0.375 0.046875 0
0.1875 0.09375 0
0.375 0.09375 0
0.375 0 0
0.5625 0 0
0.375 0.046875 0
0.5625 0.046875 0
0.5625 0 0
0.75 0 0
0.5625 0.046875 0
0.75 0.046875 0
0.375 0.046875 0
0.5625 0.046875 0
0.375 0.09375 0
0.5625 0.09375 0
0.5625 0.046875 0
0.75 0.046875 0
0.5625 0.09375 0
0.75 0.09375 0
0 0.09375 0
0.1875 0.09375 0
0 0.140625 0
0.1875 0.140625 0
0.1875 0.09375 0
0.375 0.09375 0
0.1875 0.140625 0
0.375 0.140625 0
0 0.140625 0
0.1875 0.140625 0
0 0.1875 0
0.1875 0.1875 0
0.1875 0.140625 0
0.375 0.140625 0
0.1875 0.1875 0
0.375 0.1875 0
0.375 0.09375 0
0.5625 0.09375 0
0.375 0.140625 0
0.5625 0.140625 0
0.5625 0.09375 0
0.75 0.09375 0
0.5625 0.140625 0
0.75 0.140625 0
0.375 0.140625 0
0.5625 0.140625 0
0.375 0.1875 0
0.5625 0.1875 0
0.5625 0.140625 0
0.75 0.140625 0
0.5625 0.1875 0
0.75 0.1875 0
0.75 0 0
0.9375 0 0
0.75 0.046875 0
0.9375 0.046875 0
0.9375 0 0
1.125 0 0
0.9375 0.046875 0
1.125 0.046875 0
0.75 0.046875 0
0.9375 0.046875 0
0.75 0.09375 0
0.9375 0.09375 0
0.9375 0.046875 0
1.125 0.046875 0
0.9375 0.09375 0
1.125 0.09375 0
1.125 0 0
1.3125 0 0
1.125 0.046875 0
1.3125 0.046875 0
1.3125 0 0
1.5 0 0
1.3125 0.046875 0
1.5 0.046875 0
1.125 0.046875 0
1.3125 0.046875 0
1.125 0.09375 0
1.3125 0.09375 0
1.3125 0.046875 0
1.5 0.046875 0
1.3125 0.09375 0
1.5 0.09375 0
0.75 0.09375 0
0.9375 0.09375 0
0.75 0.140625 0
0.9375 0.140625 0
0.9375 0.09375 0
1.125 0.09375 0
0.9375 0.140625 0
1.125 0.140625 0
0.75 0.140625 0
0.9375 0.140625 0
0.75 0.1875 0
0.9375 0.1875 0
0.9375 0.140625 0
1.125 0.140625 0
0.9375 0.1875 0
1.125 0.1875 0
1.125 0.09375 0
1.3125 0.09375 0
1.125 0.140625 0
1.3125 0.140625 0
1.3125 0.09375 0
1.5 0.09375 0
1.3125 0.140625 0
1.5 0.140625 0
1.125 0.140625 0
1.3125 0.140625 0
1.125 0.1875 0
1.3125 0.1875 0
1.3125 0.140625 0
1.5 0.140625 0
1.3125 0.1875 0
1.5 0.1875 0
0 0.1875 0
0.1875 0.1875 0
0 0.234375 0
0.1875 0.234375 0
0.1875 0.1875 0
0.375 0.1875 0
0.1875 0.234375 0
0.375 0.234375 0
0 0.234375 0
0.1875 0.234375 0
0 0.28125 0
0.1875 0.28125 0
0.1875 0.234375 0
0.375 0.234375 0
0.1875 0.28125 0
0.375 0.28125 0
0.375 0.1875 0
0.5625 0.1875 0
0.375 0.234375 0
0.5625 0.234375 0
0.5625 0.1875 0
0.75 0.1875 0
0.5625 0.234375 0
0.75 0.234375 0
0.375 0.234375 0
0.5625 0.234375 0
0.375 0.28125 0
0.5625 0.28125 0
0.5625 0.234375 0
0.75 0.234375 0
0.5625 0.28125 0
0.75 0.28125 0
0 0.28125 0
0.1875 0.28125 0
0 0.328125 0
0.1875 0.328125 0
0.1875 0.28125 0
0.375 0.28125 0
0.1875 0.328125 0
0.375 0.328125 0
0 0.328125 0
0.1875 0.328125 0
0 0.375 0
0.1875 0.375 0
0.1875 0.328125 0
0.375 0.328125 0
0.1875 0.375 0
0.375 0.375 0
0.375 0.28125 0
0.5625 0.28125 0
0.375 0.328125 0
0.5625 0.328125 0
0.5625 0.28125 0
0.75 0.28125 0
0.5625 0.328125 0
0.75 0.328125 0
0.375 0.328125 0
0.5625 0.328125 0
0.375 0.375 0
0.5625 0.375 0
0.5625 0.328125 0
0.75 0.328125 0
0.5625 0.375 0
0.75 0.375 0
0.75 0.1875 0
0.9375 0.1875 0
0.75 0.234375 0
0.9375 0.234375 0
0.9375 0.1875 0
1.125 0.1875 0
0.9375 0.234375 0
1.125 0.234375 0
0.75 0.234375 0
0.9375 0.234375 0
0.75 0.28125 0
0.9375 0.28125 0
0.9375 0.234375 0
1.125 0.234375 0
0.9375 0.28125 0
1.125 0.28125 0
1.125 0.1875 0
1.3125 0.1875 0
1.125 0.234375 0
1.3125 0.234375 0
1.3125 0.1875 0
1.5 0.1875 0
1.3125 0.234375 0
1.5 0.234375 0
1.125 0.234375 0
1.3125 0.234375 0
1.125 0.28125 0
1.3125 0.28125 0
1.3125 0.234375 0
1.5 0.234375 0
1.3125 0.28125 0
1.5 0.28125 0
0.75 0.28125 0
0.9375 0.28125 0
0.75 0.328125 0
0.9375 0.328125 0
0.9375 0.28125 0
1.125 0.28125 0
0.9375 0.328125 0
1.125 0.328125 0
0.75 0.328125 0
0.9375 0.328125 0
0.75 0.375 0
0.9375 0.375 0
0.9375 0.328125 0
1.125 0.328125 0
0.9375 0.375 0
1.125 0.375 0
1.125 0.28125 0
1.3125 0.28125 0
1.125 0.328125 0
1.3125 0.328125 0
1.3125 0.28125 0
1.5 0.28125 0
1.3125 0.328125 0
1.5 0.328125 0
1.125 0.328125 0
1.3125 0.328125 0
1.125 0.375 0
1.3125 0.375 0
1.3125 0.328125 0
1.5 0.328125 0
1.3125 0.375 0
1.5 0.375 0
1.5 0 0
1.6875 0 0
1.5 0.046875 0
1.6875 0.046875 0
1.6875 0 0
1.875 0 0
1.6875 0.046875 0
1.875 0.046875 0
1.5 0.046875 0
1.6875 0.046875 0
1.5 0.09375 0
1.6875 0.09375 0
1.6875 0.046875 0
1.875 0.046875 0
1.6875 0.09375 0
1.875 0.09375 0
1.875 0 0
2.0625 0 0
1.875 0.046875 0
2.0625 0.046875 0
2.0625 0 0
2.25 0 0
2.0625 0.046875 0
2.25 0.046875 0
1.875 0.046875 0
2.0625 0.046875 0
1.875 0.09375 0
2.0625 0.09375 0
2.0625 0.046875 0
2.25 0.046875 0
2.0625 0.09375 0
2.25 0.09375 0
1.5 0.09375 0
1.6875 0.09375 0
1.5 0.140625 0
1.6875 0.140625 0
1.6875 0.09375 0
1.875 0.09375 0
1.6875 0.140625 0
1.875 0.140625 0
1.5 0.140625 0
1.6875 0.140625 0
1.5 0.1875 0
1.6875 0.1875 0
1.6875 0.140625 0
1.875 0.140625 0
1.6875 0.1875 0
1.875 0.1875 0
1.875 0.09375 0
2.0625 0.09375 0
1.875 0.140625 0
2.0625 0.140625 0
2.0625 0.09375 0
2.25 0.09375 0
2.0625 0.140625 0
2.25 0.140625 0
1.875 0.140625 0
2.0625 0.140625 0
1.875 0.1875 0
2.0625 0.1875 0
2.0625 0.140625 0
2.25 0.140625 0
2.0625 0.1875 0
2.25 0.1875 0
2.25 0 0
2.4375 0 0
2.25 0.046875 0
2.4375 0.046875 0
2.4375 0 0
2.625 0 0
2.4375 0.046875 0
2.625 0.046875 0
2.25 0.046875 0
2.4375 0.046875 0
2.25 0.09375 0
2.4375 0.09375 0
2.4375 0.046875 0
2.625 0.046875 0
2.4375 0.09375 0
2.625 0.09375 0
2.625 0 0
2.8125 0 0
2.625 0.046875 0
2.8125 0.046875 0
2.8125 0 0
3 0 0
2.8125 0.046875 0
3 0.046875 0
2.625 0.046875 0
2.8125 0.046875 0
2.625 0.09375 0
2.8125 0.09375 0
2.8125 0.046875 0
3 0.046875 0
2.8125 0.09375 0
3 0.09375 0
2.25 0.09375 0
2.4375 0.09375 0
2.25 0.140625 0
2.4375 0.140625 0
2.4375 0.09375 0
2.625 0.09375 0
2.4375 0.140625 0
2.625 0.140625 0
2.25 0.140625 0
2.4375 0.140625 0
2.25 0.1875 0
2.4375 0.1875 0
2.4375 0.140625 0
2.625 0.140625 0
2.4375 0.1875 0
2.625 0.1875 0
2.625 0.09375 0
2.8125 0.09375 0
2.625 0.140625 0
2.8125 0.140625 0
2.8125 0.09375 0
3 0.09375 0
2.8125 0.140625 0
3 0.140625 0
2.625 0.140625 0
2.8125 0.140625 0
2.625 0.1875 0
2.8125 0.1875 0
2.8125 0.140625 0
3 0.140625 0
2.8125 0.1875 0
3 0.1875 0
1.5 0.1875 0
1.6875 0.1875 0
1.5 0.234375 0
1.6875 0.234375 0
1.6875 0.1875 0
1.875 0.1875 0
1.6875 0.234375 0
1.875 0.234375 0
1.5 0.234375 0
1.6875 0.234375 0
1.5 0.28125 0
1.6875 0.28125 0
1.6875 0.234375 0
1.875 0.234375 0
1.6875 0.28125 0
1.875 0.28125 0
1.875 0.1875 0
2.0625 0.1875 0
1.875 0.234375 0
2.0625 0.234375 0
2.0625 0.1875 0
2.25 0.1875 0
2.0625 0.234375 0
2.25 0.234375 0
1.875 0.234375 0
2.0625 0.234375 0
1.875 0.28125 0
2.0625 0.28125 0
2.0625 0.234375 0
2.25 0.234375 0
2.0625 0.28125 0
2.25 0.28125 0
1.5 0.28125 0
1.6875 0.28125 0
1.5 0.328125 0
1.6875 0.328125 0
1.6875 0.28125 0
1.875 0.28125 0
1.6875 0.328125 0
1.875 0.328125 0
1.5 0.328125 0
1.6875 0.328125 0
1.5 0.375 0
1.6875 0.375 0
1.6875 0.328125 0
1.875 0.328125 0
1.6875 0.375 0
1.875 0.375 0
1.875 0.28125 0
2.0625 0.28125 0
1.875 0.328125 0
2.0625 0.328125 0
2.0625 0.28125 0
2.25 0.28125 0
2.0625 0.328125 0
2.25 0.328125 0
1.875 0.328125 0
2.0625 0.328125 0
1.875 0.375 0
2.0625 0.375 0
2.0625 0.328125 0
2.25 0.328125 0
2.0625 0.375 0
2.25 0.375 0
2.25 0.1875 0
2.4375 0.1875 0
2.25 0.234375 0
2.4375 0.234375 0
2.4375 0.1875 0
2.625 0.1875 0
2.4375 0.234375 0
2.625 0.234375 0
2.25 0.234375 0
2.4375 0.234375 0
2.25 0.28125 0
2.4375 0.28125 0
2.4375 0.234375 0
2.625 0.234375 0
2.4375 0.28125 0
2.625 0.28125 0
2.625 0.1875 0
2.8125 0.1875 0
2.625 0.234375 0
2.8125 0.234375 0
2.8125 0.1875 0
3 0.1875 0
2.8125 0.234375 0
3 0.234375 0
2.625 0.234375 0
2.8125 0.234375 0
2.625 0.28125 0
2.8125 0.28125 0
2.8125 0.234375 0
3 0.234375 0
2.8125 0.28125 0
3 0.28125 0
2.25 0.28125 0
2.4375 0.28125 0
2.25 0.328125 0
2.4375 0.328125 0
2.4375 0.28125 0
2.625 0.28125 0
2.4375 0.328125 0
2.625 0.328125 0
2.25 0.328125 0
2.4375 0.328125 0
2.25 0.375 0
2.4375 0.375 0
2.4375 0.328125 0
2.625 0.328125 0
2.4375 0.375 0
2.625 0.375 0
2.625 0.28125 0
2.8125 0.28125 0
2.625 0.328125 0
2.8125 0.328125 0
2.8125 0.28125 0
3 0.28125 0
2.8125 0.328125 0
3 0.328125 0
2.625 0.328125 0
2.8125 0.328125 0
2.625 0.375 0
2.8125 0.375 0
2.8125 0.328125 0
3 0.328125 0
2.8125 0.375 0
3 0.375 0
0 0.375 0
0.1875 0.375 0
0 0.421875 0
0.1875 0.421875 0
0.1875 0.375 0
0.375 0.375 0
0.1875 0.421875 0
0.375 0.421875 0
0 0.421875 0
0.1875 0.421875 0
0 0.46875 0
0.1875 0.46875 0
0.1875 0.421875 0
0.375 0.421875 0
0.1875 0.46875 0
0.375 0.46875 0
0.375 0.375 0
0.5625 0.375 0
0.375 0.421875 0
0.5625 0.421875 0
0.5625 0.375 0
0.75 0.375 0
0.5625 0.421875 0
0.75 0.421875 0
0.375 0.421875 0
0.5625 0.421875 0
0.375 0.46875 0
0.5625 0.46875 0
0.5625 0.421875 0
0.75 0.421875 0
0.5625 0.46875 0
0.75 0.46875 0
0 0.46875 0
0.1875 0.46875 0
0 0.515625 0
0.1875 0.515625 0
0.1875 0.46875 0
0.375 0.46875 0
0.1875 0.515625 0
0.375 0.515625 0
0 0.515625 0
0.1875 0.515625 0
0 0.5625 0
0.1875 0.5625 0
0.1875 0.515625 0
0.375 0.515625 0
0.1875 0.5625 0
0.375 0.5625 0
0.375 0.46875 0
0.5625 0.46875 0
0.375 0.515625 0
0.5625 0.515625 0
0.5625 0.46875 0
0.75 0.46875 0
0.5625 0.515625 0
0.75 0.515625 0
0.375 0.515625 0
0.5625 0.515625 0
0.375 0.5625 0
0.5625 0.5625 0
0.5625 0.515625 0
0.75 0.515625 0
0.5625 0.5625 0
0.75 0.5625 0
0.75 0.375 0
0.9375 0.375 0
0.75 0.421875 0
0.9375 0.421875 0
0.9375 0.375 0
1.125 0.375 0
0.9375 0.421875 0
1.125 0.421875 0
0.75 0.421875 0
0.9375 0.421875 0
0.75 0.46875 0
0.9375 0.46875 0
0.9375 0.421875 0
1.125 0.421875 0
0.9375 0.46875 0
1.125 0.46875 0
1.125 0.375 0
1.3125 0.375 0
1.125 0.421875 0
1.3125 0.421875 0
1.3125 0.375 0
1.5 0.375 0
1.3125 0.421875 0
1.5 0.421875 0
1.125 0.421875 0
1.3125 0.421875 0
1.125 0.46875 0
1.3125 0.46875 0
1.3125 0.421875 0
1.5 0.421875 0
1.3125 0.46875 0
1.5 0.46875 0
0.75 0.46875 0
0.9375 0.46875 0
0.75 0.515625 0
0.9375 0.515625 0
0.9375 0.46875 0
1.125 0.46875 0
0.9375 0.515625 0
1.125 0.515625 0
0.75 0.515625 0
0.9375 0.515625 0
[...]
POINT_DATA 16384
SCALARS x_displacement double 1
LOOKUP_TABLE default
0 0.0261028 0 0.0243454 0.0261028 0.0438096 0.0243454 0.0435092 0 0.0243454 0 0.0229951 0.0243454 0.0435092 0.0229951 0.0418997 0.0438096 0.0505697 0.0435092 0.0501798 0.0505697 0.0471232 0.0501798 0.0467368 0.0435092 0.0501798 0.0418997 0.0489833 0.0501798 0.0467368 0.0489833 0.0459091 0 0.0229951 0 0.021697 0.0229951 0.0418997 0.021697 0.0392441 0 0.021697 0 0.0204916 0.021697 0.0392441 0.0204916 0.0363176 0.0418997 0.0489833 0.0392441 0.0468988 0.0489833 0.0459091 0.0468988 0.0446584 0.0392441 0.0468988 0.0363176 0.0437773 0.0468988 0.0446584 0.0437773 0.0431088 0.0471232 0.0437823 0.0467368 0.0434935 0.0437823 0.0417724 0.0434935 0.0415901 0.0467368 0.0434935 0.0459091 0.043016 0.0434935 0.0415901 0.043016 0.0412879 0.0417724 0.0406523 0.0415901 0.0404689 0.0406523 0.0400163 0.0404689 0.0398148 0.0415901 0.0404689 0.0412879 0.0402206 0.0404689 0.0398148 0.0402206 0.0395742 0.0459091 0.043016 0.0446584 0.0423743 0.043016 0.0412879 0.0423743 0.0408823 0.0446584 0.0423743 0.0431088 0.041601 0.0423743 0.0408823 0.041601 0.0403848 0.0412879 0.0402206 0.0408823 0.0399088 0.0402206 0.0395742 0.0399088 0.0392961 0.0408823 0.0399088 0.0403848 0.0395401 0.0399088 0.0392961 0.0395401 0.038982 0 0.0204916 0 0.0193997 0.0204916 0.0363176 0.0193997 0.033457 0 0.0193997 0 0.0183839 0.0193997 0.033457 0.0183839 0.0311691 0.0363176 0.0437773 0.033457 0.0405038 0.0437773 0.0431088 0.0405038 0.0414903 0.033457 0.0405038 0.0311691 0.0378922 0.0405038 0.0414903 0.0378922 0.0398359 0 0.0183839 0 0.0174986 0.0183839 0.0311691 0.0174986 0.0293385 0 0.0174986 0 0.0167523 0.0174986 0.0293385 0.0167523 0.0278667 0.0311691 0.0378922 0.0293385 0.0358099 0.0378922 0.0398359 0.0358099 0.038272 0.0293385 0.0358099 0.0278667 0.0341063 0.0358099 0.038272 0.0341063 0.0368484 0.0431088 0.041601 0.0414903 0.0407092 0.041601 0.0403848 0.0407092 0.0398141 0.0414903 0.0407092 0.0398359 0.0397486 0.0407092 0.0398141 0.0397486 0.0391837 0.0403848 0.0395401 0.0398141 0.0391206 0.0395401 0.038982 0.0391206 0.0386346 0.0398141 0.0391206 0.0391837 0.0386581 0.0391206 0.0386346 0.0386581 0.0382574 0.0398359 0.0397486 0.038272 0.0387473 0.0397486 0.0391837 0.0387473 0.0385114 0.038272 0.0387473 0.0368484 0.0377428 0.0387473 0.0385114 0.0377428 0.0378113 0.0391837 0.0386581 0.0385114 0.0381602 0.0386581 0.0382574 0.0381602 0.0378543 0.0385114 0.0381602 0.0378113 0.0376354 0.0381602 0.0378543 0.0376354 0.0374293 0.0400163 0.039662 0.0398148 0.0394389 0.039662 0.0394766 0.0394389 0.0392326 0.0398148 0.0394389 0.0395742 0.0391921 0.0394389 0.0392326 0.0391921 0.038974 0.0394766 0.0393928 0.0392326 0.0391302 0.0393928 0.039369 0.0391302 0.0390907 0.0392326 0.0391302 0.038974 0.0388588 0.0391302 0.0390907 0.0388588 0.0388071 0.0395742 0.0391921 0.0392961 0.0389216 0.0391921 0.038974 0.0389216 0.0387008 0.0392961 0.0389216 0.038982 0.0386284 0.0389216 0.0387008 0.0386284 0.0384129 0.038974 0.0388588 0.0387008 0.0385783 0.0388588 0.0388071 0.0385783 0.0385181 0.0387008 0.0385783 0.0384129 0.0382886 0.0385783 0.0385181 0.0382886 0.0382234 0.039369 0.0393796 0.0390907 0.0390882 0.0393796 0.0394082 0.0390882 0.0391061 0.0390907 0.0390882 0.0388071 0.0387939 0.0390882 0.0391061 0.0387939 0.0388027 0.0394082 0.0394446 0.0391061 0.0391342 0.0394446 0.0394828 0.0391342 0.0391657 0.0391061 0.0391342 0.0388027 0.0388232 0.0391342 0.0391657 0.0388232 0.0388488 0.0388071 0.0387939 0.0385181 0.0384964 0.0387939 0.0388027 0.0384964 0.0384977 0.0385181 0.0384964 0.0382234 0.0381956 0.0384964 0.0384977 0.0381956 0.0381908 0.0388027 0.0388232 0.0384977 0.0385116 0.0388232 0.0388488 0.0385116 0.0385317 0.0384977 0.0385116 0.0381908 0.0381991 0.0385116 0.0385317 0.0381991 0.0382143 0.038982 0.0386284 0.0386346 0.0383135 0.0386284 0.0384129 0.0383135 0.038111 0.0386346 0.0383135 0.0382574 0.0379786 0.0383135 0.038111 0.0379786 0.0377957 0.0384129 0.0382886 0.038111 0.0379898 0.0382886 0.0382234 0.0379898 0.0379229 0.038111 0.0379898 0.0377957 0.0376822 0.0379898 0.0379229 0.0376822 0.0376168 0.0382574 0.0379786 0.0378543 0.0376254 0.0379786 0.0377957 0.0376254 0.0374679 0.0378543 0.0376254 0.0374293 0.0372561 0.0376254 0.0374679 0.0372561 0.0371287 0.0377957 0.0376822 0.0374679 0.0373662 0.0376822 0.0376168 0.0373662 0.037305 0.0374679 0.0373662 0.0371287 0.0370423 0.0373662 0.037305 0.0370423 0.0369879 0.0382234 0.0381956 0.0379229 0.0378913 0.0381956 0.0381908 0.0378913 0.0378818 0.0379229 0.0378913 0.0376168 0.0375834 0.0378913 0.0378818 0.0375834 0.0375707 0.0381908 0.0381991 0.0378818 0.0378855 0.0381991 0.0382143 0.0378855 0.0378965 0.0378818 0.0378855 0.0375707 0.0375708 0.0378855 0.0378965 0.0375708 0.0375781 0.0376168 0.0375834 0.037305 0.0372719 0.0375834 0.0375707 0.0372719 0.0372574 0.037305 0.0372719 0.0369879 0.0369568 0.0372719 0.0372574 0.0369568 0.0369418 0.0375707 0.0375708 0.0372574 0.0372547 0.0375708 0.0375781 0.0372547 0.037259 0.0372574 0.0372547 0.0369418 0.0369372 0.0372547 0.037259 0.0369372 0.0369391 0 0.0167523 0 0.0161336 0.0167523 0.0278667 0.0161336 0.0266747 0 0.0161336 0 0.0156239 0.0161336 0.0266747 0.0156239 0.0257024 0.0278667 0.0341063 0.0266747 0.0326915 0.0341063 0.0368484 0.0326915 0.0355718 0.0266747 0.0326915 0.0257024 0.0315046 0.0326915 0.0355718 0.0315046 0.0344344 0 0.0156239 0 0.0152042 0.0156239 0.0257024 0.0152042 0.0249033 0 0.0152042 0 0.0148574 0.0152042 0.0249033 0.0148574 0.0242418 0.0257024 0.0315046 0.0249033 0.0305012 0.0315046 0.0344344 0.0305012 0.0334238 0.0249033 0.0305012 0.0242418 0.0296473 0.0305012 0.0334238 0.0296473 0.0325265 0.0368484 0.0377428 0.0355718 0.0367652 0.0377428 0.0378113 0.0367652 0.0370978 0.0355718 0.0367652 0.0344344 0.0358332 0.0367652 0.0370978 0.0358332 0.0363842 0.0378113 0.0376354 0.0370978 0.0370913 0.0376354 0.0374293 0.0370913 0.0369868 0.0370978 0.0370913 0.0363842 0.0365355 0.0370913 0.0369868 0.0365355 0.0365311 0.0344344 0.0358332 0.0334238 0.0349566 0.0358332 0.0363842 0.0349566 0.0356819 0.0334238 0.0349566 0.0325265 0.0341396 0.0349566 0.0356819 0.0341396 0.0349993 0.0363842 0.0365355 0.0356819 0.0359745 0.0365355 0.0365311 0.0359745 0.0360663 0.0356819 0.0359745 0.0349993 0.0354147 0.0359745 0.0360663 0.0354147 0.0355962 0 0.0148574 0 0.0145692 0.0148574 0.0242418 0.0145692 0.0236899 0 0.0145692 0 0.014328 0.0145692 0.0236899 0.014328 0.0232259 0.0242418 0.0296473 0.0236899 0.0289165 0.0296473 0.0325265 0.0289165 0.0317294 0.0236899 0.0289165 0.0232259 0.0282873 0.0289165 0.0317294 0.0282873 0.0310205 0 0.014328 0 0.0141247 0.014328 0.0232259 0.0141247 0.0228326 0 0.0141247 0 0.0139517 0.0141247 0.0228326 0.0139517 0.0224967 0.0232259 0.0282873 0.0228326 0.0277426 0.0282873 0.0310205 0.0277426 0.0303887 0.0228326 0.0277426 0.0224967 0.0272684 0.0277426 0.0303887 0.0272684 0.0298245 0.0325265 0.0341396 0.0317294 0.0333828 0.0341396 0.0349993 0.0333828 0.0343421 0.0317294 0.0333828 0.0310205 0.0326844 0.0333828 0.0343421 0.0326844 0.0337142 0.0349993 0.0354147 0.0343421 0.0348612 0.0354147 0.0355962 0.0348612 0.0351245 0.0343421 0.0348612 0.0337142 0.0343182 0.0348612 0.0351245 0.0343182 0.0346542 0.0310205 0.0326844 0.0303887 0.0320415 0.0326844 0.0337142 0.0320415 0.0331175 0.0303887 0.0320415 0.0298245 0.0314504 0.0320415 0.0331175 0.0314504 0.0325528 0.0337142 0.0343182 0.0331175 0.0337891 0.0343182 0.0346542 0.0337891 0.0341881 0.0331175 0.0337891 0.0325528 0.0332762 0.0337891 0.0341881 0.0332762 0.0337286 0.0374293 0.0372561 0.0369868 0.036873 0.0372561 0.0371287 0.036873 0.0367792 0.0369868 0.036873 0.0365311 0.0364785 0.036873 0.0367792 0.0364785 0.0364209 0.0371287 0.0370423 0.0367792 0.036711 0.0370423 0.0369879 0.036711 0.0366657 0.0367792 0.036711 0.0364209 0.0363732 0.036711 0.0366657 0.0363732 0.0363389 0.0365311 0.0364785 0.0360663 0.036075 0.0364785 0.0364209 0.036075 0.036055 0.0360663 0.036075 0.0355962 0.0356649 0.036075 0.036055 0.0356649 0.0356831 0.0364209 0.0363732 0.036055 0.0360296 0.0363732 0.0363389 0.0360296 0.0360077 0.036055 0.0360296 0.0356831 0.035681 0.0360296 0.0360077 0.035681 0.0356727 0.0369879 0.0369568 0.0366657 0.0366383 0.0369568 0.0369418 0.0366383 0.0366239 0.0366657 0.0366383 0.0363389 0.0363166 0.0366383 0.0366239 0.0363166 0.0363038 0.0369418 0.0369372 0.0366239 0.0366183 0.0369372 0.0369391 0.0366183 0.0366183 0.0366239 0.0366183 0.0363038 0.0362979 0.0366183 0.0366183 0.0362979 0.0362967 0.0363389 0.0363166 0.0360077 0.0359917 0.0363166 0.0363038 0.0359917 0.0359816 0.0360077 0.0359917 0.0356727 0.0356641 0.0359917 0.0359816 0.0356641 0.0356573 0.0363038 0.0362979 0.0359816 0.0359761 0.0362979 0.0362967 0.0359761 0.0359741 0.0359816 0.0359761 0.0356573 0.0356529 0.0359761 0.0359741 0.0356529 0.0356506 0.0355962 0.0356649 0.0351245 0.0352505 0.0356649 0.0356831 0.0352505 0.0353064 0.0351245 0.0352505 0.0346542 0.0348338 0.0352505 0.0353064 0.0348338 0.0349265 0.0356831 0.035681 0.0353064 0.0353282 0.035681 0.0356727 0.0353282 0.0353343 0.0353064 0.0353282 0.0349265 0.0349722 0.0353282 0.0353343 0.0349722 0.0349931 0.0346542 0.0348338 0.0341881 0.0344169 0.0348338 0.0349265 0.0344169 0.0345446 0.0341881 0.0344169 0.0337286 0.0340016 0.0344169 0.0345446 0.0340016 0.0341619 0.0349265 0.0349722 0.0345446 0.0346137 0.0349722 0.0349931 0.0346137 0.0346496 0.0345446 0.0346137 0.0341619 0.0342536 0.0346137 0.0346496 0.0342536 0.0343042 0.0356727 0.0356641 0.0353343 0.0353338 0.0356641 0.0356573 0.0353338 0.0353312 0.0353343 0.0353338 0.0349931 0.0350013 0.0353338 0.0353312 0.0350013 0.0350033 0.0356573 0.0356529 0.0353312 0.0353284 0.0356529 0.0356506 0.0353284 0.0353261 0.0353312 0.0353284 0.0350033 0.0350025 0.0353284 0.0353261 0.0350025 0.0350007 0.0349931 0.0350013 0.0346496 0.0346668 0.0350013 0.0350033 0.0346668 0.0346738 0.0346496 0.0346668 0.0343042 0.0343306 0.0346668 0.0346738 0.0343306 0.0343429 0.0350033 0.0350025 0.0346738 0.0346754 0.0350025 0.0350007 0.0346754 0.0346744 0.0346738 0.0346754 0.0343429 0.0343472 0.0346754 0.0346744 0.0343472 0.0343472 0.0394828 0.0395192 0.0391657 0.0391971 0.0395192 0.0395519 0.0391971 0.0392259 0.0391657 0.0391971 0.0388488 0.0388753 0.0391971 0.0392259 0.0388753 0.0389005 0.0395519 0.0395802 0.0392259 0.0392513 0.0395802 0.0396039 0.0392513 0.0392729 0.0392259 0.0392513 0.0389005 0.038923 0.0392513 0.0392729 0.038923 0.0389425 0.0388488 0.0388753 0.0385317 0.0385538 0.0388753 0.0389005 0.0385538 0.0385754 0.0385317 0.0385538 0.0382143 0.0382323 0.0385538 0.0385754 0.0382323 0.0382506 0.0389005 0.038923 0.0385754 0.0385952 0.038923 0.0389425 0.0385952 0.0386125 0.0385754 0.0385952 0.0382506 0.0382677 0.0385952 0.0386125 0.0382677 0.0382829 0.0396039 0.0396232 0.0392729 0.0392907 0.0396232 0.0396387 0.0392907 0.0393051 0.0392729 0.0392907 0.0389425 0.0389587 0.0392907 0.0393051 0.0389587 0.038972 0.0396387 0.0396508 0.0393051 0.0393165 0.0396508 0.0396601 0.0393165 0.0393253 0.0393051 0.0393165 0.038972 0.0389826 0.0393165 0.0393253 0.0389826 0.0389909 0.0389425 0.0389587 0.0386125 0.0386272 0.0389587 0.038972 0.0386272 0.0386393 0.0386125 0.0386272 0.0382829 0.038296 0.0386272 0.0386393 0.038296 0.0383069 0.038972 0.0389826 0.0386393 0.038649 0.0389826 0.0389909 0.038649 0.0386567 0.0386393 0.038649 0.0383069 0.0383157 0.038649 0.0386567 0.0383157 0.0383227 0.0382143 0.0382323 0.0378965 0.0379108 0.0382323 0.0382506 0.0379108 0.0379259 0.0378965 0.0379108 0.0375781 0.037589 0.0379108 0.0379259 0.037589 0.0376013 0.0382506 0.0382677 0.0379259 0.0379405 0.0382677 0.0382829 0.0379405 0.0379537 0.0379259 0.0379405 0.0376013 0.0376135 0.0379405 0.0379537 0.0376135 0.0376247 0.0375781 0.037589 0.037259 0.037267 0.037589 0.0376013 0.037267 0.0372766 0.037259 0.037267 0.0369391 0.0369446 0.037267 0.0372766 0.0369446 0.0369518 0.0376013 0.0376135 0.0372766 0.0372865 0.0376135 0.0376247 0.0372865 0.0372959 0.0372766 0.0372865 0.0369518 0.0369596 0.0372865 0.0372959 0.0369596 0.0369671 0.0382829 0.038296 0.0379537 0.0379652 0.038296 0.0383069 0.0379652 0.0379748 0.0379537 0.0379652 0.0376247 0.0376346 0.0379652 0.0379748 0.0376346 0.037643 0.0383069 0.0383157 0.0379748 0.0379827 0.0383157 0.0383227 0.0379827 0.0379891 0.0379748 0.0379827 0.037643 0.0376499 0.0379827 0.0379891 0.0376499 0.0376556 0.0376247 0.0376346 0.0372959 0.0373042 0.0376346 0.037643 0.0373042 0.0373114 0.0372959 0.0373042 0.0369671 0.036974 0.0373042 0.0373114 0.036974 0.0369799 0.037643 0.0376499 0.0373114 0.0373174 0.0376499 0.0376556 0.0373174 0.0373222 0.0373114 0.0373174 0.0369799 0.0369849 0.0373174 0.0373222 0.0369849 0.0369891 0.0396601 0.0396671 0.0393253 0.039332 0.0396671 0.0396723 0.039332 0.039337 0.0393253 0.039332 0.0389909 0.0389972 0.039332 0.039337 0.0389972 0.039002 0.0396723 0.039676 0.039337 0.0393406 0.039676 0.0396786 0.0393406 0.0393432 0.039337 0.0393406 0.039002 0.0390055 0.0393406 0.0393432 0.0390055 0.039008 0.0389909 0.0389972 0.0386567 0.0386626 0.0389972 0.039002 0.0386626 0.0386671 0.0386567 0.0386626 0.0383227 0.0383282 0.0386626 0.0386671 0.0383282 0.0383324 0.039002 0.0390055 0.0386671 0.0386704 0.0390055 0.039008 0.0386704 0.0386728 0.0386671 0.0386704 0.0383324 0.0383355 0.0386704 0.0386728 0.0383355 0.0383378 0.0396786 0.0396804 0.0393432 0.039345 0.0396804 0.0396816 0.039345 0.0393462 0.0393432 0.039345 0.039008 0.0390097 0.039345 0.0393462 0.0390097 0.0390109 0.0396816 0.0396823 0.0393462 0.039347 0.0396823 0.0396827 0.039347 0.0393474 0.0393462 0.039347 0.0390109 0.0390117 0.039347 0.0393474 0.0390117 0.0390122 0.039008 0.0390097 0.0386728 0.0386745 0.0390097 0.0390109 0.0386745 0.0386757 0.0386728 0.0386745 0.0383378 0.0383394 0.0386745 0.0386757 0.0383394 0.0383405 0.0390109 0.0390117 0.0386757 0.0386765 0.0390117 0.0390122 0.0386765 0.038677 0.0386757 0.0386765 0.0383405 0.0383413 0.0386765 0.038677 0.0383413 0.0383418 0.0383227 0.0383282 0.0379891 0.037994 0.0383282 0.0383324 0.037994 0.0379978 0.0379891 0.037994 0.0376556 0.03766 0.037994 0.0379978 0.03766 0.0376634 0.0383324 0.0383355 0.0379978 0.0380007 0.0383355 0.0383378 0.0380007 0.0380028 0.0379978 0.0380007 0.0376634 0.037666 0.0380007 0.0380028 0.037666 0.037668 0.0376556 0.03766 0.0373222 0.0373261 0.03766 0.0376634 0.0373261 0.0373291 0.0373222 0.0373261 0.0369891 0.0369924 0.0373261 0.0373291 0.0369924 0.036995 0.0376634 0.037666 0.0373291 0.0373315 0.037666 0.037668 0.0373315 0.0373332 0.0373291 0.0373315 0.036995 0.036997 0.0373315 0.0373332 0.036997 0.0369985 0.0383378 0.0383394 0.0380028 0.0380044 0.0383394 0.0383405 0.0380044 0.0380054 0.0380028 0.0380044 0.037668 0.0376694 0.0380044 0.0380054 0.0376694 0.0376704 0.0383405 0.0383413 0.0380054 0.0380062 0.0383413 0.0383418 0.0380062 0.0380066 0.0380054 0.0380062 0.0376704 0.0376711 0.0380062 0.0380066 0.0376711 0.0376715 0.037668 0.0376694 0.0373332 0.0373345 0.0376694 0.0376704 0.0373345 0.0373354 0.0373332 0.0373345 0.0369985 0.0369996 0.0373345 0.0373354 0.0369996 0.0370004 0.0376704 0.0376711 0.0373354 0.037336 0.0376711 0.0376715 0.037336 0.0373364 0.0373354 0.037336 0.0370004 0.037001 0.037336 0.0373364 0.037001 0.0370013 0.0369391 0.0369446 0.0366183 0.0366217 0.0369446 0.0369518 0.0366217 0.0366268 0.0366183 0.0366217 0.0362967 0.0362983 0.0366217 0.0366268 0.0362983 0.0363016 0.0369518 0.0369596 0.0366268 0.0366327 0.0369596 0.0369671 0.0366327 0.0366384 0.0366268 0.0366327 0.0363016 0.0363056 0.0366327 0.0366384 0.0363056 0.0363098 0.0362967 0.0362983 0.0359741 0.0359743 0.0362983 0.0363016 0.0359743 0.035976 0.0359741 0.0359743 0.0356506 0.0356498 0.0359743 0.035976 0.0356498 0.03565 0.0363016 0.0363056 0.035976 0.0359784 0.0363056 0.0363098 0.0359784 0.0359811 0.035976 0.0359784 0.03565 0.0356509 0.0359784 0.0359811 0.0356509 0.0356522 0.0369671 0.036974 0.0366384 0.0366438 0.036974 0.0369799 0.0366438 0.0366486 0.0366384 0.0366438 0.0363098 0.0363138 0.0366438 0.0366486 0.0363138 0.0363174 0.0369799 0.0369849 0.0366486 0.0366527 0.0369849 0.0369891 0.0366527 0.036656 0.0366486 0.0366527 0.0363174 0.0363205 0.0366527 0.036656 0.0363205 0.0363231 0.0363098 0.0363138 0.0359811 0.0359837 0.0363138 0.0363174 0.0359837 0.0359862 0.0359811 0.0359837 0.0356522 0.0356536 0.0359837 0.0359862 0.0356536 0.035655 0.0363174 0.0363205 0.0359862 0.0359884 0.0363205 0.0363231 0.0359884 0.0359902 0.0359862 0.0359884 0.035655 0.0356563 0.0359884 0.0359902 0.0356563 0.0356574 0.0356506 0.0356498 0.0353261 0.0353245 0.0356498 0.03565 0.0353245 0.0353236 0.0353261 0.0353245 0.0350007 0.0349987 0.0353245 0.0353236 0.0349987 0.0349968 0.03565 0.0356509 0.0353236 0.0353233 0.0356509 0.0356522 0.0353233 0.0353233 0.0353236 0.0353233 0.0349968 0.0349953 0.0353233 0.0353233 0.0349953 0.0349941 0.0350007 0.0349987 0.0346744 0.0346721 0.0349987 0.0349968 0.0346721 0.0346696 0.0346744 0.0346721 0.0343472 0.0343449 0.0346721 0.0346696 0.0343449 0.0343418 0.0349968 0.0349953 0.0346696 0.034667 0.0349953 0.0349941 0.034667 0.0346648 0.0346696 0.034667 0.0343418 0.0343384 0.034667 0.0346648 0.0343384 0.0343352 0.0356522 0.0356536 0.0353233 0.0353235 0.0356536 0.035655 0.0353235 0.0353238 0.0353233 0.0353235 0.0349941 0.0349932 0.0353235 0.0353238 0.0349932 0.0349926 0.035655 0.0356563 0.0353238 0.0353242 0.0356563 0.0356574 0.0353242 0.0353246 0.0353238 0.0353242 0.0349926 0.0349922 0.0353242 0.0353246 0.0349922 0.0349918 0.0349941 0.0349932 0.0346648 0.0346629 0.0349932 0.0349926 0.0346629 0.0346613 0.0346648 0.0346629 0.0343352 0.0343324 0.0346629 0.0346613 0.0343324 0.0343299 0.0349926 0.0349922 0.0346613 0.03466 0.0349922 0.0349918 0.03466 0.034659 0.0346613 0.03466 0.0343299 0.0343279 0.03466 0.034659 0.0343279 0.0343262 0.0369891 0.0369924 0.036656 0.0366588 0.0369924 0.036995 0.0366588 0.0366609 0.036656 0.0366588 0.0363231 0.0363252 0.0366588 0.0366609 0.0363252 0.0363269 0.036995 0.036997 0.0366609 0.0366626 0.036997 0.0369985 0.0366626 0.0366638 0.0366609 0.0366626 0.0363269 0.0363283 0.0366626 0.0366638 0.0363283 0.0363293 0.0363231 0.0363252 0.0359902 0.0359918 0.0363252 0.0363269 0.0359918 0.035993 0.0359902 0.0359918 0.0356574 0.0356583 0.0359918 0.035993 0.0356583 0.0356591 0.0363269 0.0363283 0.035993 0.035994 0.0363283 0.0363293 0.035994 0.0359947 0.035993 0.035994 0.0356591 0.0356598 0.035994 0.0359947 0.0356598 0.0356603 0.0369985 0.0369996 0.0366638 0.0366648 0.0369996 0.0370004 0.0366648 0.0366655 0.0366638 0.0366648 0.0363293 0.03633 0.0366648 0.0366655 0.03633 0.0363306 0.0370004 0.037001 0.0366655 0.036666 0.037001 0.0370013 0.036666 0.0366663 0.0366655 0.036666 0.0363306 0.036331 0.036666 0.0366663 0.036331 0.0363313 0.0363293 0.03633 0.0359947 0.0359953 0.03633 0.0363306 0.0359953 0.0359957 0.0359947 0.0359953 0.0356603 0.0356606 0.0359953 0.0359957 0.0356606 0.0356609 0.0363306 0.036331 0.0359957 0.035996 0.036331 0.0363313 0.035996 0.0359963 0.0359957 0.035996 0.0356609 0.0356611 0.035996 0.0359963 0.0356611 0.0356613 0.0356574 0.0356583 0.0353246 0.035325 0.0356583 0.0356591 0.035325 0.0353253 0.0353246 0.035325 0.0349918 0.0349916 0.035325 0.0353253 0.0349916 0.0349915 0.0356591 0.0356598 0.0353253 0.0353256 0.0356598 0.0356603 0.0353256 0.0353258 0.0353253 0.0353256 0.0349915 0.0349914 0.0353256 0.0353258 0.0349914 0.0349914 0.0349918 0.0349916 0.034659 0.0346583 0.0349916 0.0349915 0.0346583 0.0346577 0.034659 0.0346583 0.0343262 0.0343249 0.0346583 0.0346577 0.0343249 0.0343239 0.0349915 0.0349914 0.0346577 0.0346573 0.0349914 0.0349914 0.0346573 0.034657 0.0346577 0.0346573 0.0343239 0.0343231 0.0346573 0.034657 0.0343231 0.0343225 0.0356603 0.0356606 0.0353258 0.035326 0.0356606 0.0356609 0.035326 0.0353261 0.0353258 0.035326 0.0349914 0.0349913 0.035326 0.0353261 0.0349913 0.0349913 0.0356609 0.0356611 0.0353261 0.0353262 0.0356611 0.0356613 0.0353262 0.0353263 0.0353261 0.0353262 0.0349913 0.0349913 0.0353262 0.0353263 0.0349913 0.0349913 0.0349914 0.0349913 0.034657 0.0346567 0.0349913 0.0349913 0.0346567 0.0346566 0.034657 0.0346567 0.0343225 0.0343221 0.0346567 0.0346566 0.0343221 0.0343218 0.0349913 0.0349913 0.0346566 0.0346565 0.0349913 0.0349913 0.0346565 0.0346564 0.0346566 0.0346565 0.0343