# vtk DataFile Version 3.0
#This file was generated by the deal.II library on 2022/1/6 at 22:35:02
ASCII
DATASET UNSTRUCTURED_GRID

POINTS 16384 double
0 0 0
0.1875 0 0
0 0.046875 0
0.1875 0.046875 0
0.1875 0 0
0.375 0 0
0.1875 0.046875 0
0.375 0.046875 0
0 0.046875 0
0.1875 0.046875 0
0 0.09375 0
0.1875 0.09375 0
0.1875 0.046875 0
0.375 0.046875 0
0.1875 0.09375 0
0.375 0.09375 0
0.375 0 0
0.5625 0 0
0.375 0.046875 0
0.5625 0.046875 0
0.5625 0 0
0.75 0 0
0.5625 0.046875 0
0.75 0.046875 0
0.375 0.046875 0
0.5625 0.046875 0
0.375 0.09375 0
0.5625 0.09375 0
0.5625 0.046875 0
0.75 0.046875 0
0.5625 0.09375 0
0.75 0.09375 0
0 0.09375 0
0.1875 0.09375 0
0 0.140625 0
0.1875 0.140625 0
0.1875 0.09375 0
0.375 0.09375 0
0.1875 0.140625 0
0.375 0.140625 0
0 0.140625 0
0.1875 0.140625 0
0 0.1875 0
0.1875 0.1875 0
0.1875 0.140625 0
0.375 0.140625 0
0.1875 0.1875 0
0.375 0.1875 0
0.375 0.09375 0
0.5625 0.09375 0
0.375 0.140625 0
0.5625 0.140625 0
0.5625 0.09375 0
0.75 0.09375 0
0.5625 0.140625 0
0.75 0.140625 0
0.375 0.140625 0
0.5625 0.140625 0
0.375 0.1875 0
0.5625 0.1875 0
0.5625 0.140625 0
0.75 0.140625 0
0.5625 0.1875 0
0.75 0.1875 0
0.75 0 0
0.9375 0 0
0.75 0.046875 0
0.9375 0.046875 0
0.9375 0 0
1.125 0 0
0.9375 0.046875 0
1.125 0.046875 0
0.75 0.046875 0
0.9375 0.046875 0
0.75 0.09375 0
0.9375 0.09375 0
0.9375 0.046875 0
1.125 0.046875 0
0.9375 0.09375 0
1.125 0.09375 0
1.125 0 0
1.3125 0 0
1.125 0.046875 0
1.3125 0.046875 0
1.3125 0 0
1.5 0 0
1.3125 0.046875 0
1.5 0.046875 0
1.125 0.046875 0
1.3125 0.046875 0
1.125 0.09375 0
1.3125 0.09375 0
1.3125 0.046875 0
1.5 0.046875 0
1.3125 0.09375 0
1.5 0.09375 0
0.75 0.09375 0
0.9375 0.09375 0
0.75 0.140625 0
0.9375 0.140625 0
0.9375 0.09375 0
1.125 0.09375 0
0.9375 0.140625 0
1.125 0.140625 0
0.75 0.140625 0
0.9375 0.140625 0
0.75 0.1875 0
0.9375 0.1875 0
0.9375 0.140625 0
1.125 0.140625 0
0.9375 0.1875 0
1.125 0.1875 0
1.125 0.09375 0
1.3125 0.09375 0
1.125 0.140625 0
1.3125 0.140625 0
1.3125 0.09375 0
1.5 0.09375 0
1.3125 0.140625 0
1.5 0.140625 0
1.125 0.140625 0
1.3125 0.140625 0
1.125 0.1875 0
1.3125 0.1875 0
1.3125 0.140625 0
1.5 0.140625 0
1.3125 0.1875 0
1.5 0.1875 0
0 0.1875 0
0.1875 0.1875 0
0 0.234375 0
0.1875 0.234375 0
0.1875 0.1875 0
0.375 0.1875 0
0.1875 0.234375 0
0.375 0.234375 0
0 0.234375 0
0.1875 0.234375 0
0 0.28125 0
0.1875 0.28125 0
0.1875 0.234375 0
0.375 0.234375 0
0.1875 0.28125 0
0.375 0.28125 0
0.375 0.1875 0
0.5625 0.1875 0
0.375 0.234375 0
0.5625 0.234375 0
0.5625 0.1875 0
0.75 0.1875 0
0.5625 0.234375 0
0.75 0.234375 0
0.375 0.234375 0
0.5625 0.234375 0
0.375 0.28125 0
0.5625 0.28125 0
0.5625 0.234375 0
0.75 0.234375 0
0.5625 0.28125 0
0.75 0.28125 0
0 0.28125 0
0.1875 0.28125 0
0 0.328125 0
0.1875 0.328125 0
0.1875 0.28125 0
0.375 0.28125 0
0.1875 0.328125 0
0.375 0.328125 0
0 0.328125 0
0.1875 0.328125 0
0 0.375 0
0.1875 0.375 0
0.1875 0.328125 0
0.375 0.328125 0
0.1875 0.375 0
0.375 0.375 0
0.375 0.28125 0
0.5625 0.28125 0
0.375 0.328125 0
0.5625 0.328125 0
0.5625 0.28125 0
0.75 0.28125 0
0.5625 0.328125 0
0.75 0.328125 0
0.375 0.328125 0
0.5625 0.328125 0
0.375 0.375 0
0.5625 0.375 0
0.5625 0.328125 0
0.75 0.328125 0
0.5625 0.375 0
0.75 0.375 0
0.75 0.1875 0
0.9375 0.1875 0
0.75 0.234375 0
0.9375 0.234375 0
0.9375 0.1875 0
1.125 0.1875 0
0.9375 0.234375 0
1.125 0.234375 0
0.75 0.234375 0
0.9375 0.234375 0
0.75 0.28125 0
0.9375 0.28125 0
0.9375 0.234375 0
1.125 0.234375 0
0.9375 0.28125 0
1.125 0.28125 0
1.125 0.1875 0
1.3125 0.1875 0
1.125 0.234375 0
1.3125 0.234375 0
1.3125 0.1875 0
1.5 0.1875 0
1.3125 0.234375 0
1.5 0.234375 0
1.125 0.234375 0
1.3125 0.234375 0
1.125 0.28125 0
1.3125 0.28125 0
1.3125 0.234375 0
1.5 0.234375 0
1.3125 0.28125 0
1.5 0.28125 0
0.75 0.28125 0
0.9375 0.28125 0
0.75 0.328125 0
0.9375 0.328125 0
0.9375 0.28125 0
1.125 0.28125 0
0.9375 0.328125 0
1.125 0.328125 0
0.75 0.328125 0
0.9375 0.328125 0
0.75 0.375 0
0.9375 0.375 0
0.9375 0.328125 0
1.125 0.328125 0
0.9375 0.375 0
1.125 0.375 0
1.125 0.28125 0
1.3125 0.28125 0
1.125 0.328125 0
1.3125 0.328125 0
1.3125 0.28125 0
1.5 0.28125 0
1.3125 0.328125 0
1.5 0.328125 0
1.125 0.328125 0
1.3125 0.328125 0
1.125 0.375 0
1.3125 0.375 0
1.3125 0.328125 0
1.5 0.328125 0
1.3125 0.375 0
1.5 0.375 0
1.5 0 0
1.6875 0 0
1.5 0.046875 0
1.6875 0.046875 0
1.6875 0 0
1.875 0 0
1.6875 0.046875 0
1.875 0.046875 0
1.5 0.046875 0
1.6875 0.046875 0
1.5 0.09375 0
1.6875 0.09375 0
1.6875 0.046875 0
1.875 0.046875 0
1.6875 0.09375 0
1.875 0.09375 0
1.875 0 0
2.0625 0 0
1.875 0.046875 0
2.0625 0.046875 0
2.0625 0 0
2.25 0 0
2.0625 0.046875 0
2.25 0.046875 0
1.875 0.046875 0
2.0625 0.046875 0
1.875 0.09375 0
2.0625 0.09375 0
2.0625 0.046875 0
2.25 0.046875 0
2.0625 0.09375 0
2.25 0.09375 0
1.5 0.09375 0
1.6875 0.09375 0
1.5 0.140625 0
1.6875 0.140625 0
1.6875 0.09375 0
1.875 0.09375 0
1.6875 0.140625 0
1.875 0.140625 0
1.5 0.140625 0
1.6875 0.140625 0
1.5 0.1875 0
1.6875 0.1875 0
1.6875 0.140625 0
1.875 0.140625 0
1.6875 0.1875 0
1.875 0.1875 0
1.875 0.09375 0
2.0625 0.09375 0
1.875 0.140625 0
2.0625 0.140625 0
2.0625 0.09375 0
2.25 0.09375 0
2.0625 0.140625 0
2.25 0.140625 0
1.875 0.140625 0
2.0625 0.140625 0
1.875 0.1875 0
2.0625 0.1875 0
2.0625 0.140625 0
2.25 0.140625 0
2.0625 0.1875 0
2.25 0.1875 0
2.25 0 0
2.4375 0 0
2.25 0.046875 0
2.4375 0.046875 0
2.4375 0 0
2.625 0 0
2.4375 0.046875 0
2.625 0.046875 0
2.25 0.046875 0
2.4375 0.046875 0
2.25 0.09375 0
2.4375 0.09375 0
2.4375 0.046875 0
2.625 0.046875 0
2.4375 0.09375 0
2.625 0.09375 0
2.625 0 0
2.8125 0 0
2.625 0.046875 0
2.8125 0.046875 0
2.8125 0 0
3 0 0
2.8125 0.046875 0
3 0.046875 0
2.625 0.046875 0
2.8125 0.046875 0
2.625 0.09375 0
2.8125 0.09375 0
2.8125 0.046875 0
3 0.046875 0
2.8125 0.09375 0
3 0.09375 0
2.25 0.09375 0
2.4375 0.09375 0
2.25 0.140625 0
2.4375 0.140625 0
2.4375 0.09375 0
2.625 0.09375 0
2.4375 0.140625 0
2.625 0.140625 0
2.25 0.140625 0
2.4375 0.140625 0
2.25 0.1875 0
2.4375 0.1875 0
2.4375 0.140625 0
2.625 0.140625 0
2.4375 0.1875 0
2.625 0.1875 0
2.625 0.09375 0
2.8125 0.09375 0
2.625 0.140625 0
2.8125 0.140625 0
2.8125 0.09375 0
3 0.09375 0
2.8125 0.140625 0
3 0.140625 0
2.625 0.140625 0
2.8125 0.140625 0
2.625 0.1875 0
2.8125 0.1875 0
2.8125 0.140625 0
3 0.140625 0
2.8125 0.1875 0
3 0.1875 0
1.5 0.1875 0
1.6875 0.1875 0
1.5 0.234375 0
1.6875 0.234375 0
1.6875 0.1875 0
1.875 0.1875 0
1.6875 0.234375 0
1.875 0.234375 0
1.5 0.234375 0
1.6875 0.234375 0
1.5 0.28125 0
1.6875 0.28125 0
1.6875 0.234375 0
1.875 0.234375 0
1.6875 0.28125 0
1.875 0.28125 0
1.875 0.1875 0
2.0625 0.1875 0
1.875 0.234375 0
2.0625 0.234375 0
2.0625 0.1875 0
2.25 0.1875 0
2.0625 0.234375 0
2.25 0.234375 0
1.875 0.234375 0
2.0625 0.234375 0
1.875 0.28125 0
2.0625 0.28125 0
2.0625 0.234375 0
2.25 0.234375 0
2.0625 0.28125 0
2.25 0.28125 0
1.5 0.28125 0
1.6875 0.28125 0
1.5 0.328125 0
1.6875 0.328125 0
1.6875 0.28125 0
1.875 0.28125 0
1.6875 0.328125 0
1.875 0.328125 0
1.5 0.328125 0
1.6875 0.328125 0
1.5 0.375 0
1.6875 0.375 0
1.6875 0.328125 0
1.875 0.328125 0
1.6875 0.375 0
1.875 0.375 0
1.875 0.28125 0
2.0625 0.28125 0
1.875 0.328125 0
2.0625 0.328125 0
2.0625 0.28125 0
2.25 0.28125 0
2.0625 0.328125 0
2.25 0.328125 0
1.875 0.328125 0
2.0625 0.328125 0
1.875 0.375 0
2.0625 0.375 0
2.0625 0.328125 0
2.25 0.328125 0
2.0625 0.375 0
2.25 0.375 0
2.25 0.1875 0
2.4375 0.1875 0
2.25 0.234375 0
2.4375 0.234375 0
2.4375 0.1875 0
2.625 0.1875 0
2.4375 0.234375 0
2.625 0.234375 0
2.25 0.234375 0
2.4375 0.234375 0
2.25 0.28125 0
2.4375 0.28125 0
2.4375 0.234375 0
2.625 0.234375 0
2.4375 0.28125 0
2.625 0.28125 0
2.625 0.1875 0
2.8125 0.1875 0
2.625 0.234375 0
2.8125 0.234375 0
2.8125 0.1875 0
3 0.1875 0
2.8125 0.234375 0
3 0.234375 0
2.625 0.234375 0
2.8125 0.234375 0
2.625 0.28125 0
2.8125 0.28125 0
2.8125 0.234375 0
3 0.234375 0
2.8125 0.28125 0
3 0.28125 0
2.25 0.28125 0
2.4375 0.28125 0
2.25 0.328125 0
2.4375 0.328125 0
2.4375 0.28125 0
2.625 0.28125 0
2.4375 0.328125 0
2.625 0.328125 0
2.25 0.328125 0
2.4375 0.328125 0
2.25 0.375 0
2.4375 0.375 0
2.4375 0.328125 0
2.625 0.328125 0
2.4375 0.375 0
2.625 0.375 0
2.625 0.28125 0
2.8125 0.28125 0
2.625 0.328125 0
2.8125 0.328125 0
2.8125 0.28125 0
3 0.28125 0
2.8125 0.328125 0
3 0.328125 0
2.625 0.328125 0
2.8125 0.328125 0
2.625 0.375 0
2.8125 0.375 0
2.8125 0.328125 0
3 0.328125 0
2.8125 0.375 0
3 0.375 0
0 0.375 0
0.1875 0.375 0
0 0.421875 0
0.1875 0.421875 0
0.1875 0.375 0
0.375 0.375 0
0.1875 0.421875 0
0.375 0.421875 0
0 0.421875 0
0.1875 0.421875 0
0 0.46875 0
0.1875 0.46875 0
0.1875 0.421875 0
0.375 0.421875 0
0.1875 0.46875 0
0.375 0.46875 0
0.375 0.375 0
0.5625 0.375 0
0.375 0.421875 0
0.5625 0.421875 0
0.5625 0.375 0
0.75 0.375 0
0.5625 0.421875 0
0.75 0.421875 0
0.375 0.421875 0
0.5625 0.421875 0
0.375 0.46875 0
0.5625 0.46875 0
0.5625 0.421875 0
0.75 0.421875 0
0.5625 0.46875 0
0.75 0.46875 0
0 0.46875 0
0.1875 0.46875 0
0 0.515625 0
0.1875 0.515625 0
0.1875 0.46875 0
0.375 0.46875 0
0.1875 0.515625 0
0.375 0.515625 0
0 0.515625 0
0.1875 0.515625 0
0 0.5625 0
0.1875 0.5625 0
0.1875 0.515625 0
0.375 0.515625 0
0.1875 0.5625 0
0.375 0.5625 0
0.375 0.46875 0
0.5625 0.46875 0
0.375 0.515625 0
0.5625 0.515625 0
0.5625 0.46875 0
0.75 0.46875 0
0.5625 0.515625 0
0.75 0.515625 0
0.375 0.515625 0
0.5625 0.515625 0
0.375 0.5625 0
0.5625 0.5625 0
0.5625 0.515625 0
0.75 0.515625 0
0.5625 0.5625 0
0.75 0.5625 0
0.75 0.375 0
0.9375 0.375 0
0.75 0.421875 0
0.9375 0.421875 0
0.9375 0.375 0
1.125 0.375 0
0.9375 0.421875 0
1.125 0.421875 0
0.75 0.421875 0
0.9375 0.421875 0
0.75 0.46875 0
0.9375 0.46875 0
0.9375 0.421875 0
1.125 0.421875 0
0.9375 0.46875 0
1.125 0.46875 0
1.125 0.375 0
1.3125 0.375 0
1.125 0.421875 0
1.3125 0.421875 0
1.3125 0.375 0
1.5 0.375 0
1.3125 0.421875 0
1.5 0.421875 0
1.125 0.421875 0
1.3125 0.421875 0
1.125 0.46875 0
1.3125 0.46875 0
1.3125 0.421875 0
1.5 0.421875 0
1.3125 0.46875 0
1.5 0.46875 0
0.75 0.46875 0
0.9375 0.46875 0
0.75 0.515625 0
0.9375 0.515625 0
0.9375 0.46875 0
1.125 0.46875 0
0.9375 0.515625 0
1.125 0.515625 0
0.75 0.515625 0
0.9375 0.515625 0
[...]
POINT_DATA 16384
SCALARS x_displacement double 1
LOOKUP_TABLE default
0 0.0276365 0 0.0255414 0.0276365 0.0470816 0.0255414 0.0466212 0 0.0255414 0 0.0240065 0.0255414 0.0466212 0.0240065 0.0448771 0.0470816 0.0556467 0.0466212 0.0552634 0.0556467 0.0536899 0.0552634 0.0534278 0.0466212 0.0552634 0.0448771 0.0540607 0.0552634 0.0534278 0.0540607 0.0526829 0 0.0240065 0 0.0226031 0.0240065 0.0448771 0.0226031 0.0421238 0 0.0226031 0 0.0213368 0.0226031 0.0421238 0.0213368 0.0391305 0.0448771 0.0540607 0.0421238 0.0519605 0.0540607 0.0526829 0.0519605 0.0514863 0.0421238 0.0519605 0.0391305 0.0488202 0.0519605 0.0514863 0.0488202 0.0499701 0.0536899 0.0512035 0.0534278 0.0510674 0.0512035 0.0495941 0.0510674 0.0495358 0.0534278 0.0510674 0.0526829 0.050706 0.0510674 0.0495358 0.050706 0.049339 0.0495941 0.0486708 0.0495358 0.0485747 0.0486708 0.0481563 0.0485747 0.0480141 0.0495358 0.0485747 0.049339 0.0484067 0.0485747 0.0480141 0.0484067 0.0478313 0.0526829 0.050706 0.0514863 0.0501512 0.050706 0.049339 0.0501512 0.0490212 0.0514863 0.0501512 0.0499701 0.0494422 0.0501512 0.0490212 0.0494422 0.0485955 0.049339 0.0484067 0.0490212 0.0481674 0.0484067 0.0478313 0.0481674 0.047608 0.0490212 0.0481674 0.0485955 0.0478627 0.0481674 0.047608 0.0478627 0.0473451 0 0.0213368 0 0.0202098 0.0213368 0.0391305 0.0202098 0.0362257 0 0.0202098 0 0.0191746 0.0202098 0.0362257 0.0191746 0.0339092 0.0391305 0.0488202 0.0362257 0.0455283 0.0488202 0.0499701 0.0455283 0.0483707 0.0362257 0.0455283 0.0339092 0.0429004 0.0455283 0.0483707 0.0429004 0.0467256 0 0.0191746 0 0.0182793 0.0191746 0.0339092 0.0182793 0.032061 0 0.0182793 0 0.0175289 0.0182793 0.032061 0.0175289 0.0305785 0.0339092 0.0429004 0.032061 0.0408043 0.0429004 0.0467256 0.0408043 0.0451645 0.032061 0.0408043 0.0305785 0.0390893 0.0408043 0.0451645 0.0390893 0.0437395 0.0499701 0.0494422 0.0483707 0.0485968 0.0494422 0.0485955 0.0485968 0.0480825 0.0483707 0.0485968 0.0467256 0.0476688 0.0485968 0.0480825 0.0476688 0.0474977 0.0485955 0.0478627 0.0480825 0.0474988 0.0478627 0.0473451 0.0474988 0.0470449 0.0480825 0.0474988 0.0474977 0.047084 0.0474988 0.0470449 0.047084 0.0467103 0.0467256 0.0476688 0.0451645 0.0466894 0.0476688 0.0474977 0.0466894 0.0468609 0.0451645 0.0466894 0.0437395 0.0456988 0.0466894 0.0468609 0.0456988 0.0461878 0.0474977 0.047084 0.0468609 0.0466263 0.047084 0.0467103 0.0466263 0.0463453 0.0468609 0.0466263 0.0461878 0.0461349 0.0466263 0.0463453 0.0461349 0.045954 0.0481563 0.0478943 0.0480141 0.0477119 0.0478943 0.0477861 0.0477119 0.0475703 0.0480141 0.0477119 0.0478313 0.047506 0.0477119 0.0475703 0.047506 0.0473407 0.0477861 0.0477681 0.0475703 0.047525 0.0477681 0.0478002 0.047525 0.0475351 0.0475703 0.047525 0.0473407 0.0472742 0.047525 0.0475351 0.0472742 0.047266 0.0478313 0.047506 0.047608 0.0472759 0.047506 0.0473407 0.0472759 0.0470969 0.047608 0.0472759 0.0473451 0.0470218 0.0472759 0.0470969 0.0470218 0.0468384 0.0473407 0.0472742 0.0470969 0.047015 0.0472742 0.047266 0.047015 0.0469923 0.0470969 0.047015 0.0468384 0.046747 0.047015 0.0469923 0.046747 0.0467135 0.0478002 0.0478573 0.0475351 0.0475747 0.0478573 0.0479239 0.0475747 0.0476276 0.0475351 0.0475747 0.047266 0.0472904 0.0475747 0.0476276 0.0472904 0.0473309 0.0479239 0.047991 0.0476276 0.047684 0.047991 0.0480534 0.047684 0.0477383 0.0476276 0.047684 0.0473309 0.0473774 0.047684 0.0477383 0.0473774 0.0474239 0.047266 0.0472904 0.0469923 0.0470038 0.0472904 0.0473309 0.0470038 0.0470334 0.0469923 0.0470038 0.0467135 0.0467145 0.0470038 0.0470334 0.0467145 0.0467346 0.0473309 0.0473774 0.0470334 0.0470709 0.0473774 0.0474239 0.0470709 0.0471101 0.0470334 0.0470709 0.0467346 0.0467641 0.0470709 0.0471101 0.0467641 0.0467966 0.0473451 0.0470218 0.0470449 0.0467443 0.0470218 0.0468384 0.0467443 0.0465652 0.0470449 0.0467443 0.0467103 0.0464446 0.0467443 0.0465652 0.0464446 0.0462779 0.0468384 0.046747 0.0465652 0.0464701 0.046747 0.0467135 0.0464701 0.0464294 0.0465652 0.0464701 0.0462779 0.0461842 0.0464701 0.0464294 0.0461842 0.0461398 0.0467103 0.0464446 0.0463453 0.0461243 0.0464446 0.0462779 0.0461243 0.0459769 0.0463453 0.0461243 0.045954 0.0457853 0.0461243 0.0459769 0.0457853 0.0456632 0.0462779 0.0461842 0.0459769 0.0458895 0.0461842 0.0461398 0.0458895 0.0458446 0.0459769 0.0458895 0.0456632 0.0455863 0.0458895 0.0458446 0.0455863 0.045544 0.0467135 0.0467145 0.0464294 0.0464222 0.0467145 0.0467346 0.0464222 0.0464345 0.0464294 0.0464222 0.0461398 0.0461268 0.0464222 0.0464345 0.0461268 0.0461326 0.0467346 0.0467641 0.0464345 0.0464568 0.0467641 0.0467966 0.0464568 0.0464832 0.0464345 0.0464568 0.0461326 0.0461487 0.0464568 0.0464832 0.0461487 0.0461696 0.0461398 0.0461268 0.0458446 0.045828 0.0461268 0.0461326 0.045828 0.0458288 0.0458446 0.045828 0.045544 0.0455257 0.045828 0.0458288 0.0455257 0.045523 0.0461326 0.0461487 0.0458288 0.0458397 0.0461487 0.0461696 0.0458397 0.0458556 0.0458288 0.0458397 0.045523 0.0455296 0.0458397 0.0458556 0.0455296 0.0455412 0 0.0175289 0 0.0169096 0.0175289 0.0305785 0.0169096 0.0293807 0 0.0169096 0 0.0164014 0.0169096 0.0293807 0.0164014 0.0284054 0.0305785 0.0390893 0.0293807 0.0376651 0.0390893 0.0437395 0.0376651 0.0424588 0.0293807 0.0376651 0.0284054 0.0364704 0.0376651 0.0424588 0.0364704 0.0413156 0 0.0164014 0 0.0159844 0.0164014 0.0284054 0.0159844 0.0276053 0 0.0159844 0 0.0156408 0.0159844 0.0276053 0.0156408 0.0269439 0.0284054 0.0364704 0.0276053 0.0354604 0.0364704 0.0413156 0.0354604 0.0402983 0.0276053 0.0354604 0.0269439 0.0346008 0.0354604 0.0402983 0.0346008 0.0393938 0.0437395 0.0456988 0.0424588 0.0447291 0.0456988 0.0461878 0.0447291 0.0454943 0.0424588 0.0447291 0.0413156 0.0438004 0.0447291 0.0454943 0.0438004 0.044795 0.0461878 0.0461349 0.0454943 0.0456184 0.0461349 0.045954 0.0456184 0.045541 0.0454943 0.0456184 0.044795 0.0450848 0.0456184 0.045541 0.0450848 0.0451108 0.0413156 0.0438004 0.0402983 0.0429239 0.0438004 0.044795 0.0429239 0.0441024 0.0402983 0.0429239 0.0393938 0.0421045 0.0429239 0.0441024 0.0421045 0.0434258 0.044795 0.0450848 0.0441024 0.0445415 0.0450848 0.0451108 0.0445415 0.0446678 0.0441024 0.0445415 0.0434258 0.0439955 0.0445415 0.0446678 0.0439955 0.0442162 0 0.0156408 0 0.0153561 0.0156408 0.0269439 0.0153561 0.0263927 0 0.0153561 0 0.0151184 0.0153561 0.0263927 0.0151184 0.0259297 0.0269439 0.0346008 0.0263927 0.033865 0.0346008 0.0393938 0.033865 0.0385892 0.0263927 0.033865 0.0259297 0.0332314 0.033865 0.0385892 0.0332314 0.0378728 0 0.0151184 0 0.0149184 0.0151184 0.0259297 0.0149184 0.0255376 0 0.0149184 0 0.0147486 0.0149184 0.0255376 0.0147486 0.0252028 0.0259297 0.0332314 0.0255376 0.0326826 0.0332314 0.0378728 0.0326826 0.0372337 0.0255376 0.0326826 0.0252028 0.0322047 0.0326826 0.0372337 0.0322047 0.0366623 0.0393938 0.0421045 0.0385892 0.0413436 0.0421045 0.0434258 0.0413436 0.0427718 0.0385892 0.0413436 0.0378728 0.04064 0.0413436 0.0427718 0.04064 0.0421448 0.0434258 0.0439955 0.0427718 0.0434525 0.0439955 0.0442162 0.0434525 0.04376 0.0427718 0.0434525 0.0421448 0.0429172 0.0434525 0.04376 0.0429172 0.0433025 0.0378728 0.04064 0.0372337 0.0399911 0.04064 0.0421448 0.0399911 0.0415472 0.0372337 0.0399911 0.0366623 0.0393935 0.0399911 0.0415472 0.0393935 0.0409804 0.0421448 0.0429172 0.0415472 0.0423935 0.0429172 0.0433025 0.0423935 0.042847 0.0415472 0.0423935 0.0409804 0.0418842 0.0423935 0.042847 0.0418842 0.042396 0.045954 0.0457853 0.045541 0.0454298 0.0457853 0.0456632 0.0454298 0.0453378 0.045541 0.0454298 0.0451108 0.0450603 0.0454298 0.0453378 0.0450603 0.0450019 0.0456632 0.0455863 0.0453378 0.045275 0.0455863 0.045544 0.045275 0.045238 0.0453378 0.045275 0.0450019 0.0449564 0.045275 0.045238 0.0449564 0.0449269 0.0451108 0.0450603 0.0446678 0.0446793 0.0450603 0.0450019 0.0446793 0.0446569 0.0446678 0.0446793 0.0442162 0.0442891 0.0446793 0.0446569 0.0442891 0.0443042 0.0450019 0.0449564 0.0446569 0.044631 0.0449564 0.0449269 0.044631 0.044611 0.0446569 0.044631 0.0443042 0.0442996 0.044631 0.044611 0.0442996 0.0442907 0.045544 0.0455257 0.045238 0.0452201 0.0455257 0.045523 0.0452201 0.0452151 0.045238 0.0452201 0.0449269 0.044911 0.0452201 0.0452151 0.044911 0.044905 0.045523 0.0455296 0.0452151 0.0452183 0.0455296 0.0455412 0.0452183 0.0452261 0.0452151 0.0452183 0.044905 0.0449057 0.0452183 0.0452261 0.0449057 0.0449103 0.0449269 0.044911 0.044611 0.0445986 0.044911 0.044905 0.0445986 0.0445927 0.044611 0.0445986 0.0442907 0.0442831 0.0445986 0.0445927 0.0442831 0.0442783 0.044905 0.0449057 0.0445927 0.0445916 0.0449057 0.0449103 0.0445916 0.0445937 0.0445927 0.0445916 0.0442783 0.0442762 0.0445916 0.0445937 0.0442762 0.0442762 0.0442162 0.0442891 0.04376 0.0438923 0.0442891 0.0443042 0.0438923 0.0439451 0.04376 0.0438923 0.0433025 0.0434912 0.0438923 0.0439451 0.0434912 0.0435811 0.0443042 0.0442996 0.0439451 0.0439629 0.0442996 0.0442907 0.0439629 0.0439663 0.0439451 0.0439629 0.0435811 0.0436219 0.0439629 0.0439663 0.0436219 0.0436384 0.0433025 0.0434912 0.042847 0.0430878 0.0434912 0.0435811 0.0430878 0.0432136 0.042847 0.0430878 0.042396 0.0426841 0.0430878 0.0432136 0.0426841 0.0428438 0.0435811 0.0436219 0.0432136 0.0432773 0.0436219 0.0436384 0.0432773 0.0433075 0.0432136 0.0432773 0.0428438 0.0429299 0.0432773 0.0433075 0.0429299 0.0429739 0.0442907 0.0442831 0.0439663 0.0439646 0.0442831 0.0442783 0.0439646 0.0439618 0.0439663 0.0439646 0.0436384 0.0436434 0.0439646 0.0439618 0.0436434 0.0436433 0.0442783 0.0442762 0.0439618 0.0439593 0.0442762 0.0442762 0.0439593 0.0439577 0.0439618 0.0439593 0.0436433 0.043641 0.0439593 0.0439577 0.043641 0.0436382 0.0436384 0.0436434 0.0433075 0.0433198 0.0436434 0.0436433 0.0433198 0.0433228 0.0433075 0.0433198 0.0429739 0.0429939 0.0433198 0.0433228 0.0429939 0.0430006 0.0436433 0.043641 0.0433228 0.0433213 0.043641 0.0436382 0.0433213 0.0433178 0.0433228 0.0433213 0.0430006 0.0430002 0.0433213 0.0433178 0.0430002 0.0429963 0.0480534 0.0481085 0.0477383 0.0477873 0.0481085 0.0481556 0.0477873 0.0478298 0.0477383 0.0477873 0.0474239 0.047467 0.0477873 0.0478298 0.047467 0.047505 0.0481556 0.0481945 0.0478298 0.0478654 0.0481945 0.048226 0.0478654 0.0478946 0.0478298 0.0478654 0.047505 0.0475373 0.0478654 0.0478946 0.0475373 0.047564 0.0474239 0.047467 0.0471101 0.0471475 0.047467 0.047505 0.0471475 0.0471811 0.0471101 0.0471475 0.0467966 0.0468286 0.0471475 0.0471811 0.0468286 0.0468578 0.047505 0.0475373 0.0471811 0.04721 0.0475373 0.047564 0.04721 0.0472342 0.0471811 0.04721 0.0468578 0.0468834 0.04721 0.0472342 0.0468834 0.0469051 0.048226 0.048251 0.0478946 0.0479179 0.048251 0.0482703 0.0479179 0.0479362 0.0478946 0.0479179 0.047564 0.0475856 0.0479179 0.0479362 0.0475856 0.0476026 0.0482703 0.048285 0.0479362 0.0479502 0.048285 0.048296 0.0479502 0.0479607 0.0479362 0.0479502 0.0476026 0.0476158 0.0479502 0.0479607 0.0476158 0.0476258 0.047564 0.0475856 0.0472342 0.047254 0.0475856 0.0476026 0.047254 0.0472697 0.0472342 0.047254 0.0469051 0.0469229 0.047254 0.0472697 0.0469229 0.0469372 0.0476026 0.0476158 0.0472697 0.047282 0.0476158 0.0476258 0.047282 0.0472913 0.0472697 0.047282 0.0469372 0.0469485 0.047282 0.0472913 0.0469485 0.0469572 0.0467966 0.0468286 0.0464832 0.04651 0.0468286 0.0468578 0.04651 0.0465351 0.0464832 0.04651 0.0461696 0.0461916 0.04651 0.0465351 0.0461916 0.0462127 0.0468578 0.0468834 0.0465351 0.0465574 0.0468834 0.0469051 0.0465574 0.0465765 0.0465351 0.0465574 0.0462127 0.0462318 0.0465574 0.0465765 0.0462318 0.0462484 0.0461696 0.0461916 0.0458556 0.0458732 0.0461916 0.0462127 0.0458732 0.0458906 0.0458556 0.0458732 0.0455412 0.0455548 0.0458732 0.0458906 0.0455548 0.0455686 0.0462127 0.0462318 0.0458906 0.0459066 0.0462318 0.0462484 0.0459066 0.0459206 0.0458906 0.0459066 0.0455686 0.0455816 0.0459066 0.0459206 0.0455816 0.0455932 0.0469051 0.0469229 0.0465765 0.0465924 0.0469229 0.0469372 0.0465924 0.0466052 0.0465765 0.0465924 0.0462484 0.0462623 0.0465924 0.0466052 0.0462623 0.0462736 0.0469372 0.0469485 0.0466052 0.0466154 0.0469485 0.0469572 0.0466154 0.0466234 0.0466052 0.0466154 0.0462736 0.0462827 0.0466154 0.0466234 0.0462827 0.0462898 0.0462484 0.0462623 0.0459206 0.0459325 0.0462623 0.0462736 0.0459325 0.0459424 0.0459206 0.0459325 0.0455932 0.0456031 0.0459325 0.0459424 0.0456031 0.0456114 0.0462736 0.0462827 0.0459424 0.0459503 0.0462827 0.0462898 0.0459503 0.0459565 0.0459424 0.0459503 0.0456114 0.0456181 0.0459503 0.0459565 0.0456181 0.0456234 0.048296 0.048304 0.0479607 0.0479685 0.048304 0.0483097 0.0479685 0.0479741 0.0479607 0.0479685 0.0476258 0.0476333 0.0479685 0.0479741 0.0476333 0.0476387 0.0483097 0.0483137 0.0479741 0.047978 0.0483137 0.0483163 0.047978 0.0479807 0.0479741 0.047978 0.0476387 0.0476426 0.047978 0.0479807 0.0476426 0.0476452 0.0476258 0.0476333 0.0472913 0.0472984 0.0476333 0.0476387 0.0472984 0.0473036 0.0472913 0.0472984 0.0469572 0.0469638 0.0472984 0.0473036 0.0469638 0.0469686 0.0476387 0.0476426 0.0473036 0.0473073 0.0476426 0.0476452 0.0473073 0.0473099 0.0473036 0.0473073 0.0469686 0.0469721 0.0473073 0.0473099 0.0469721 0.0469746 0.0483163 0.048318 0.0479807 0.0479824 0.048318 0.048319 0.0479824 0.0479835 0.0479807 0.0479824 0.0476452 0.047647 0.0479824 0.0479835 0.047647 0.0476481 0.048319 0.0483196 0.0479835 0.0479842 0.0483196 0.0483198 0.0479842 0.0479845 0.0479835 0.0479842 0.0476481 0.0476488 0.0479842 0.0479845 0.0476488 0.0476491 0.0476452 0.047647 0.0473099 0.0473116 0.047647 0.0476481 0.0473116 0.0473128 0.0473099 0.0473116 0.0469746 0.0469763 0.0473116 0.0473128 0.0469763 0.0469775 0.0476481 0.0476488 0.0473128 0.0473134 0.0476488 0.0476491 0.0473134 0.0473138 0.0473128 0.0473134 0.0469775 0.0469782 0.0473134 0.0473138 0.0469782 0.0469786 0.0469572 0.0469638 0.0466234 0.0466294 0.0469638 0.0469686 0.0466294 0.0466339 0.0466234 0.0466294 0.0462898 0.0462953 0.0466294 0.0466339 0.0462953 0.0462993 0.0469686 0.0469721 0.0466339 0.0466372 0.0469721 0.0469746 0.0466372 0.0466395 0.0466339 0.0466372 0.0462993 0.0463024 0.0466372 0.0466395 0.0463024 0.0463045 0.0462898 0.0462953 0.0459565 0.0459613 0.0462953 0.0462993 0.0459613 0.045965 0.0459565 0.0459613 0.0456234 0.0456276 0.0459613 0.045965 0.0456276 0.0456307 0.0462993 0.0463024 0.045965 0.0459677 0.0463024 0.0463045 0.0459677 0.0459696 0.045965 0.0459677 0.0456307 0.0456331 0.0459677 0.0459696 0.0456331 0.0456348 0.0469746 0.0469763 0.0466395 0.0466411 0.0469763 0.0469775 0.0466411 0.0466422 0.0466395 0.0466411 0.0463045 0.046306 0.0466411 0.0466422 0.046306 0.0463071 0.0469775 0.0469782 0.0466422 0.0466429 0.0469782 0.0469786 0.0466429 0.0466433 0.0466422 0.0466429 0.0463071 0.0463077 0.0466429 0.0466433 0.0463077 0.0463081 0.0463045 0.046306 0.0459696 0.045971 0.046306 0.0463071 0.045971 0.0459719 0.0459696 0.045971 0.0456348 0.045636 0.045971 0.0459719 0.045636 0.0456369 0.0463071 0.0463077 0.0459719 0.0459726 0.0463077 0.0463081 0.0459726 0.045973 0.0459719 0.0459726 0.0456369 0.0456375 0.0459726 0.045973 0.0456375 0.0456378 0.0455412 0.0455548 0.0452261 0.0452361 0.0455548 0.0455686 0.0452361 0.0452466 0.0452261 0.0452361 0.0449103 0.044917 0.0452361 0.0452466 0.044917 0.0449245 0.0455686 0.0455816 0.0452466 0.0452567 0.0455816 0.0455932 0.0452567 0.0452659 0.0452466 0.0452567 0.0449245 0.0449319 0.0452567 0.0452659 0.0449319 0.0449388 0.0449103 0.044917 0.0445937 0.0445975 0.044917 0.0449245 0.0445975 0.0446022 0.0445937 0.0445975 0.0442762 0.0442775 0.0445975 0.0446022 0.0442775 0.0442796 0.0449245 0.0449319 0.0446022 0.0446071 0.0449319 0.0449388 0.0446071 0.0446118 0.0446022 0.0446071 0.0442796 0.0442821 0.0446071 0.0446118 0.0442821 0.0442847 0.0455932 0.0456031 0.0452659 0.0452739 0.0456031 0.0456114 0.0452739 0.0452806 0.0452659 0.0452739 0.0449388 0.0449449 0.0452739 0.0452806 0.0449449 0.0449501 0.0456114 0.0456181 0.0452806 0.0452861 0.0456181 0.0456234 0.0452861 0.0452905 0.0452806 0.0452861 0.0449501 0.0449543 0.0452861 0.0452905 0.0449543 0.0449578 0.0449388 0.0449449 0.0446118 0.044616 0.0449449 0.0449501 0.044616 0.0446196 0.0446118 0.044616 0.0442847 0.0442871 0.044616 0.0446196 0.0442871 0.0442893 0.0449501 0.0449543 0.0446196 0.0446227 0.0449543 0.0449578 0.0446227 0.0446252 0.0446196 0.0446227 0.0442893 0.0442911 0.0446227 0.0446252 0.0442911 0.0442927 0.0442762 0.0442775 0.0439577 0.0439569 0.0442775 0.0442796 0.0439569 0.0439567 0.0439577 0.0439569 0.0436382 0.0436356 0.0439569 0.0439567 0.0436356 0.0436334 0.0442796 0.0442821 0.0439567 0.043957 0.0442821 0.0442847 0.043957 0.0439576 0.0439567 0.043957 0.0436334 0.0436316 0.043957 0.0439576 0.0436316 0.0436303 0.0436382 0.0436356 0.0433178 0.0433136 0.0436356 0.0436334 0.0433136 0.0433096 0.0433178 0.0433136 0.0429963 0.0429909 0.0433136 0.0433096 0.0429909 0.0429853 0.0436334 0.0436316 0.0433096 0.043306 0.0436316 0.0436303 0.043306 0.0433029 0.0433096 0.043306 0.0429853 0.0429799 0.043306 0.0433029 0.0429799 0.0429752 0.0442847 0.0442871 0.0439576 0.0439582 0.0442871 0.0442893 0.0439582 0.043959 0.0439576 0.0439582 0.0436303 0.0436293 0.0439582 0.043959 0.0436293 0.0436286 0.0442893 0.0442911 0.043959 0.0439596 0.0442911 0.0442927 0.0439596 0.0439603 0.043959 0.0439596 0.0436286 0.0436282 0.0439596 0.0439603 0.0436282 0.0436279 0.0436303 0.0436293 0.0433029 0.0433003 0.0436293 0.0436286 0.0433003 0.0432983 0.0433029 0.0433003 0.0429752 0.0429712 0.0433003 0.0432983 0.0429712 0.0429678 0.0436286 0.0436282 0.0432983 0.0432967 0.0436282 0.0436279 0.0432967 0.0432955 0.0432983 0.0432967 0.0429678 0.0429652 0.0432967 0.0432955 0.0429652 0.0429631 0.0456234 0.0456276 0.0452905 0.045294 0.0456276 0.0456307 0.045294 0.0452966 0.0452905 0.045294 0.0449578 0.0449605 0.045294 0.0452966 0.0449605 0.0449627 0.0456307 0.0456331 0.0452966 0.0452986 0.0456331 0.0456348 0.0452986 0.0453001 0.0452966 0.0452986 0.0449627 0.0449643 0.0452986 0.0453001 0.0449643 0.0449654 0.0449578 0.0449605 0.0446252 0.0446272 0.0449605 0.0449627 0.0446272 0.0446288 0.0446252 0.0446272 0.0442927 0.044294 0.0446272 0.0446288 0.044294 0.044295 0.0449627 0.0449643 0.0446288 0.04463 0.0449643 0.0449654 0.04463 0.0446309 0.0446288 0.04463 0.044295 0.0442957 0.04463 0.0446309 0.0442957 0.0442963 0.0456348 0.045636 0.0453001 0.0453011 0.045636 0.0456369 0.0453011 0.0453019 0.0453001 0.0453011 0.0449654 0.0449663 0.0453011 0.0453019 0.0449663 0.0449669 0.0456369 0.0456375 0.0453019 0.0453024 0.0456375 0.0456378 0.0453024 0.0453027 0.0453019 0.0453024 0.0449669 0.0449673 0.0453024 0.0453027 0.0449673 0.0449676 0.0449654 0.0449663 0.0446309 0.0446315 0.0449663 0.0449669 0.0446315 0.044632 0.0446309 0.0446315 0.0442963 0.0442968 0.0446315 0.044632 0.0442968 0.0442971 0.0449669 0.0449673 0.044632 0.0446323 0.0449673 0.0449676 0.0446323 0.0446325 0.044632 0.0446323 0.0442971 0.0442973 0.0446323 0.0446325 0.0442973 0.0442975 0.0442927 0.044294 0.0439603 0.0439608 0.044294 0.044295 0.0439608 0.0439612 0.0439603 0.0439608 0.0436279 0.0436276 0.0439608 0.0439612 0.0436276 0.0436275 0.044295 0.0442957 0.0439612 0.0439616 0.0442957 0.0442963 0.0439616 0.0439619 0.0439612 0.0439616 0.0436275 0.0436275 0.0439616 0.0439619 0.0436275 0.0436274 0.0436279 0.0436276 0.0432955 0.0432945 0.0436276 0.0436275 0.0432945 0.0432939 0.0432955 0.0432945 0.0429631 0.0429614 0.0432945 0.0432939 0.0429614 0.0429602 0.0436275 0.0436275 0.0432939 0.0432934 0.0436275 0.0436274 0.0432934 0.043293 0.0432939 0.0432934 0.0429602 0.0429593 0.0432934 0.043293 0.0429593 0.0429586 0.0442963 0.0442968 0.0439619 0.0439621 0.0442968 0.0442971 0.0439621 0.0439622 0.0439619 0.0439621 0.0436274 0.0436274 0.0439621 0.0439622 0.0436274 0.0436274 0.0442971 0.0442973 0.0439622 0.0439624 0.0442973 0.0442975 0.0439624 0.0439625 0.0439622 0.0439624 0.0436274 0.0436274 0.0439624 0.0439625 0.0436274 0.0436274 0.0436274 0.0436274 0.043293 0.0432928 0.0436274 0.0436274 0.0432928 0.0432926 0.043293 0.0432928 0.0429586 0.0429582 0.0432928 0.0432926 0.0429582 0.0429578 0.0436274 0.0436274 0.0432926 0.0432925 0.0436274 0.0436274 0.0432925 0.0432924 0.0432926 0.0432925 0.0429578 0.04