# vtk DataFile Version 3.0
#This file was generated by the deal.II library on 2022/1/6 at 22:58:58
ASCII
DATASET UNSTRUCTURED_GRID

POINTS 16384 double
0 0 0
0.1875 0 0
0 0.046875 0
0.1875 0.046875 0
0.1875 0 0
0.375 0 0
0.1875 0.046875 0
0.375 0.046875 0
0 0.046875 0
0.1875 0.046875 0
0 0.09375 0
0.1875 0.09375 0
0.1875 0.046875 0
0.375 0.046875 0
0.1875 0.09375 0
0.375 0.09375 0
0.375 0 0
0.5625 0 0
0.375 0.046875 0
0.5625 0.046875 0
0.5625 0 0
0.75 0 0
0.5625 0.046875 0
0.75 0.046875 0
0.375 0.046875 0
0.5625 0.046875 0
0.375 0.09375 0
0.5625 0.09375 0
0.5625 0.046875 0
0.75 0.046875 0
0.5625 0.09375 0
0.75 0.09375 0
0 0.09375 0
0.1875 0.09375 0
0 0.140625 0
0.1875 0.140625 0
0.1875 0.09375 0
0.375 0.09375 0
0.1875 0.140625 0
0.375 0.140625 0
0 0.140625 0
0.1875 0.140625 0
0 0.1875 0
0.1875 0.1875 0
0.1875 0.140625 0
0.375 0.140625 0
0.1875 0.1875 0
0.375 0.1875 0
0.375 0.09375 0
0.5625 0.09375 0
0.375 0.140625 0
0.5625 0.140625 0
0.5625 0.09375 0
0.75 0.09375 0
0.5625 0.140625 0
0.75 0.140625 0
0.375 0.140625 0
0.5625 0.140625 0
0.375 0.1875 0
0.5625 0.1875 0
0.5625 0.140625 0
0.75 0.140625 0
0.5625 0.1875 0
0.75 0.1875 0
0.75 0 0
0.9375 0 0
0.75 0.046875 0
0.9375 0.046875 0
0.9375 0 0
1.125 0 0
0.9375 0.046875 0
1.125 0.046875 0
0.75 0.046875 0
0.9375 0.046875 0
0.75 0.09375 0
0.9375 0.09375 0
0.9375 0.046875 0
1.125 0.046875 0
0.9375 0.09375 0
1.125 0.09375 0
1.125 0 0
1.3125 0 0
1.125 0.046875 0
1.3125 0.046875 0
1.3125 0 0
1.5 0 0
1.3125 0.046875 0
1.5 0.046875 0
1.125 0.046875 0
1.3125 0.046875 0
1.125 0.09375 0
1.3125 0.09375 0
1.3125 0.046875 0
1.5 0.046875 0
1.3125 0.09375 0
1.5 0.09375 0
0.75 0.09375 0
0.9375 0.09375 0
0.75 0.140625 0
0.9375 0.140625 0
0.9375 0.09375 0
1.125 0.09375 0
0.9375 0.140625 0
1.125 0.140625 0
0.75 0.140625 0
0.9375 0.140625 0
0.75 0.1875 0
0.9375 0.1875 0
0.9375 0.140625 0
1.125 0.140625 0
0.9375 0.1875 0
1.125 0.1875 0
1.125 0.09375 0
1.3125 0.09375 0
1.125 0.140625 0
1.3125 0.140625 0
1.3125 0.09375 0
1.5 0.09375 0
1.3125 0.140625 0
1.5 0.140625 0
1.125 0.140625 0
1.3125 0.140625 0
1.125 0.1875 0
1.3125 0.1875 0
1.3125 0.140625 0
1.5 0.140625 0
1.3125 0.1875 0
1.5 0.1875 0
0 0.1875 0
0.1875 0.1875 0
0 0.234375 0
0.1875 0.234375 0
0.1875 0.1875 0
0.375 0.1875 0
0.1875 0.234375 0
0.375 0.234375 0
0 0.234375 0
0.1875 0.234375 0
0 0.28125 0
0.1875 0.28125 0
0.1875 0.234375 0
0.375 0.234375 0
0.1875 0.28125 0
0.375 0.28125 0
0.375 0.1875 0
0.5625 0.1875 0
0.375 0.234375 0
0.5625 0.234375 0
0.5625 0.1875 0
0.75 0.1875 0
0.5625 0.234375 0
0.75 0.234375 0
0.375 0.234375 0
0.5625 0.234375 0
0.375 0.28125 0
0.5625 0.28125 0
0.5625 0.234375 0
0.75 0.234375 0
0.5625 0.28125 0
0.75 0.28125 0
0 0.28125 0
0.1875 0.28125 0
0 0.328125 0
0.1875 0.328125 0
0.1875 0.28125 0
0.375 0.28125 0
0.1875 0.328125 0
0.375 0.328125 0
0 0.328125 0
0.1875 0.328125 0
0 0.375 0
0.1875 0.375 0
0.1875 0.328125 0
0.375 0.328125 0
0.1875 0.375 0
0.375 0.375 0
0.375 0.28125 0
0.5625 0.28125 0
0.375 0.328125 0
0.5625 0.328125 0
0.5625 0.28125 0
0.75 0.28125 0
0.5625 0.328125 0
0.75 0.328125 0
0.375 0.328125 0
0.5625 0.328125 0
0.375 0.375 0
0.5625 0.375 0
0.5625 0.328125 0
0.75 0.328125 0
0.5625 0.375 0
0.75 0.375 0
0.75 0.1875 0
0.9375 0.1875 0
0.75 0.234375 0
0.9375 0.234375 0
0.9375 0.1875 0
1.125 0.1875 0
0.9375 0.234375 0
1.125 0.234375 0
0.75 0.234375 0
0.9375 0.234375 0
0.75 0.28125 0
0.9375 0.28125 0
0.9375 0.234375 0
1.125 0.234375 0
0.9375 0.28125 0
1.125 0.28125 0
1.125 0.1875 0
1.3125 0.1875 0
1.125 0.234375 0
1.3125 0.234375 0
1.3125 0.1875 0
1.5 0.1875 0
1.3125 0.234375 0
1.5 0.234375 0
1.125 0.234375 0
1.3125 0.234375 0
1.125 0.28125 0
1.3125 0.28125 0
1.3125 0.234375 0
1.5 0.234375 0
1.3125 0.28125 0
1.5 0.28125 0
0.75 0.28125 0
0.9375 0.28125 0
0.75 0.328125 0
0.9375 0.328125 0
0.9375 0.28125 0
1.125 0.28125 0
0.9375 0.328125 0
1.125 0.328125 0
0.75 0.328125 0
0.9375 0.328125 0
0.75 0.375 0
0.9375 0.375 0
0.9375 0.328125 0
1.125 0.328125 0
0.9375 0.375 0
1.125 0.375 0
1.125 0.28125 0
1.3125 0.28125 0
1.125 0.328125 0
1.3125 0.328125 0
1.3125 0.28125 0
1.5 0.28125 0
1.3125 0.328125 0
1.5 0.328125 0
1.125 0.328125 0
1.3125 0.328125 0
1.125 0.375 0
1.3125 0.375 0
1.3125 0.328125 0
1.5 0.328125 0
1.3125 0.375 0
1.5 0.375 0
1.5 0 0
1.6875 0 0
1.5 0.046875 0
1.6875 0.046875 0
1.6875 0 0
1.875 0 0
1.6875 0.046875 0
1.875 0.046875 0
1.5 0.046875 0
1.6875 0.046875 0
1.5 0.09375 0
1.6875 0.09375 0
1.6875 0.046875 0
1.875 0.046875 0
1.6875 0.09375 0
1.875 0.09375 0
1.875 0 0
2.0625 0 0
1.875 0.046875 0
2.0625 0.046875 0
2.0625 0 0
2.25 0 0
2.0625 0.046875 0
2.25 0.046875 0
1.875 0.046875 0
2.0625 0.046875 0
1.875 0.09375 0
2.0625 0.09375 0
2.0625 0.046875 0
2.25 0.046875 0
2.0625 0.09375 0
2.25 0.09375 0
1.5 0.09375 0
1.6875 0.09375 0
1.5 0.140625 0
1.6875 0.140625 0
1.6875 0.09375 0
1.875 0.09375 0
1.6875 0.140625 0
1.875 0.140625 0
1.5 0.140625 0
1.6875 0.140625 0
1.5 0.1875 0
1.6875 0.1875 0
1.6875 0.140625 0
1.875 0.140625 0
1.6875 0.1875 0
1.875 0.1875 0
1.875 0.09375 0
2.0625 0.09375 0
1.875 0.140625 0
2.0625 0.140625 0
2.0625 0.09375 0
2.25 0.09375 0
2.0625 0.140625 0
2.25 0.140625 0
1.875 0.140625 0
2.0625 0.140625 0
1.875 0.1875 0
2.0625 0.1875 0
2.0625 0.140625 0
2.25 0.140625 0
2.0625 0.1875 0
2.25 0.1875 0
2.25 0 0
2.4375 0 0
2.25 0.046875 0
2.4375 0.046875 0
2.4375 0 0
2.625 0 0
2.4375 0.046875 0
2.625 0.046875 0
2.25 0.046875 0
2.4375 0.046875 0
2.25 0.09375 0
2.4375 0.09375 0
2.4375 0.046875 0
2.625 0.046875 0
2.4375 0.09375 0
2.625 0.09375 0
2.625 0 0
2.8125 0 0
2.625 0.046875 0
2.8125 0.046875 0
2.8125 0 0
3 0 0
2.8125 0.046875 0
3 0.046875 0
2.625 0.046875 0
2.8125 0.046875 0
2.625 0.09375 0
2.8125 0.09375 0
2.8125 0.046875 0
3 0.046875 0
2.8125 0.09375 0
3 0.09375 0
2.25 0.09375 0
2.4375 0.09375 0
2.25 0.140625 0
2.4375 0.140625 0
2.4375 0.09375 0
2.625 0.09375 0
2.4375 0.140625 0
2.625 0.140625 0
2.25 0.140625 0
2.4375 0.140625 0
2.25 0.1875 0
2.4375 0.1875 0
2.4375 0.140625 0
2.625 0.140625 0
2.4375 0.1875 0
2.625 0.1875 0
2.625 0.09375 0
2.8125 0.09375 0
2.625 0.140625 0
2.8125 0.140625 0
2.8125 0.09375 0
3 0.09375 0
2.8125 0.140625 0
3 0.140625 0
2.625 0.140625 0
2.8125 0.140625 0
2.625 0.1875 0
2.8125 0.1875 0
2.8125 0.140625 0
3 0.140625 0
2.8125 0.1875 0
3 0.1875 0
1.5 0.1875 0
1.6875 0.1875 0
1.5 0.234375 0
1.6875 0.234375 0
1.6875 0.1875 0
1.875 0.1875 0
1.6875 0.234375 0
1.875 0.234375 0
1.5 0.234375 0
1.6875 0.234375 0
1.5 0.28125 0
1.6875 0.28125 0
1.6875 0.234375 0
1.875 0.234375 0
1.6875 0.28125 0
1.875 0.28125 0
1.875 0.1875 0
2.0625 0.1875 0
1.875 0.234375 0
2.0625 0.234375 0
2.0625 0.1875 0
2.25 0.1875 0
2.0625 0.234375 0
2.25 0.234375 0
1.875 0.234375 0
2.0625 0.234375 0
1.875 0.28125 0
2.0625 0.28125 0
2.0625 0.234375 0
2.25 0.234375 0
2.0625 0.28125 0
2.25 0.28125 0
1.5 0.28125 0
1.6875 0.28125 0
1.5 0.328125 0
1.6875 0.328125 0
1.6875 0.28125 0
1.875 0.28125 0
1.6875 0.328125 0
1.875 0.328125 0
1.5 0.328125 0
1.6875 0.328125 0
1.5 0.375 0
1.6875 0.375 0
1.6875 0.328125 0
1.875 0.328125 0
1.6875 0.375 0
1.875 0.375 0
1.875 0.28125 0
2.0625 0.28125 0
1.875 0.328125 0
2.0625 0.328125 0
2.0625 0.28125 0
2.25 0.28125 0
2.0625 0.328125 0
2.25 0.328125 0
1.875 0.328125 0
2.0625 0.328125 0
1.875 0.375 0
2.0625 0.375 0
2.0625 0.328125 0
2.25 0.328125 0
2.0625 0.375 0
2.25 0.375 0
2.25 0.1875 0
2.4375 0.1875 0
2.25 0.234375 0
2.4375 0.234375 0
2.4375 0.1875 0
2.625 0.1875 0
2.4375 0.234375 0
2.625 0.234375 0
2.25 0.234375 0
2.4375 0.234375 0
2.25 0.28125 0
2.4375 0.28125 0
2.4375 0.234375 0
2.625 0.234375 0
2.4375 0.28125 0
2.625 0.28125 0
2.625 0.1875 0
2.8125 0.1875 0
2.625 0.234375 0
2.8125 0.234375 0
2.8125 0.1875 0
3 0.1875 0
2.8125 0.234375 0
3 0.234375 0
2.625 0.234375 0
2.8125 0.234375 0
2.625 0.28125 0
2.8125 0.28125 0
2.8125 0.234375 0
3 0.234375 0
2.8125 0.28125 0
3 0.28125 0
2.25 0.28125 0
2.4375 0.28125 0
2.25 0.328125 0
2.4375 0.328125 0
2.4375 0.28125 0
2.625 0.28125 0
2.4375 0.328125 0
2.625 0.328125 0
2.25 0.328125 0
2.4375 0.328125 0
2.25 0.375 0
2.4375 0.375 0
2.4375 0.328125 0
2.625 0.328125 0
2.4375 0.375 0
2.625 0.375 0
2.625 0.28125 0
2.8125 0.28125 0
2.625 0.328125 0
2.8125 0.328125 0
2.8125 0.28125 0
3 0.28125 0
2.8125 0.328125 0
3 0.328125 0
2.625 0.328125 0
2.8125 0.328125 0
2.625 0.375 0
2.8125 0.375 0
2.8125 0.328125 0
3 0.328125 0
2.8125 0.375 0
3 0.375 0
0 0.375 0
0.1875 0.375 0
0 0.421875 0
0.1875 0.421875 0
0.1875 0.375 0
0.375 0.375 0
0.1875 0.421875 0
0.375 0.421875 0
0 0.421875 0
0.1875 0.421875 0
0 0.46875 0
0.1875 0.46875 0
0.1875 0.421875 0
0.375 0.421875 0
0.1875 0.46875 0
0.375 0.46875 0
0.375 0.375 0
0.5625 0.375 0
0.375 0.421875 0
0.5625 0.421875 0
0.5625 0.375 0
0.75 0.375 0
0.5625 0.421875 0
0.75 0.421875 0
0.375 0.421875 0
0.5625 0.421875 0
0.375 0.46875 0
0.5625 0.46875 0
0.5625 0.421875 0
0.75 0.421875 0
0.5625 0.46875 0
0.75 0.46875 0
0 0.46875 0
0.1875 0.46875 0
0 0.515625 0
0.1875 0.515625 0
0.1875 0.46875 0
0.375 0.46875 0
0.1875 0.515625 0
0.375 0.515625 0
0 0.515625 0
0.1875 0.515625 0
0 0.5625 0
0.1875 0.5625 0
0.1875 0.515625 0
0.375 0.515625 0
0.1875 0.5625 0
0.375 0.5625 0
0.375 0.46875 0
0.5625 0.46875 0
0.375 0.515625 0
0.5625 0.515625 0
0.5625 0.46875 0
0.75 0.46875 0
0.5625 0.515625 0
0.75 0.515625 0
0.375 0.515625 0
0.5625 0.515625 0
0.375 0.5625 0
0.5625 0.5625 0
0.5625 0.515625 0
0.75 0.515625 0
0.5625 0.5625 0
0.75 0.5625 0
0.75 0.375 0
0.9375 0.375 0
0.75 0.421875 0
0.9375 0.421875 0
0.9375 0.375 0
1.125 0.375 0
0.9375 0.421875 0
1.125 0.421875 0
0.75 0.421875 0
0.9375 0.421875 0
0.75 0.46875 0
0.9375 0.46875 0
0.9375 0.421875 0
1.125 0.421875 0
0.9375 0.46875 0
1.125 0.46875 0
1.125 0.375 0
1.3125 0.375 0
1.125 0.421875 0
1.3125 0.421875 0
1.3125 0.375 0
1.5 0.375 0
1.3125 0.421875 0
1.5 0.421875 0
1.125 0.421875 0
1.3125 0.421875 0
1.125 0.46875 0
1.3125 0.46875 0
1.3125 0.421875 0
1.5 0.421875 0
1.3125 0.46875 0
1.5 0.46875 0
0.75 0.46875 0
0.9375 0.46875 0
0.75 0.515625 0
0.9375 0.515625 0
0.9375 0.46875 0
1.125 0.46875 0
0.9375 0.515625 0
1.125 0.515625 0
0.75 0.515625 0
0.9375 0.515625 0
[...]
POINT_DATA 16384
SCALARS x_displacement double 1
LOOKUP_TABLE default
0 0.0337471 0 0.0301563 0.0337471 0.0595666 0.0301563 0.0578693 0 0.0301563 0 0.027694 0.0301563 0.0578693 0.027694 0.0550763 0.0595666 0.0758622 0.0578693 0.0745302 0.0758622 0.0824624 0.0745302 0.0816269 0.0578693 0.0745302 0.0550763 0.0725158 0.0745302 0.0816269 0.0725158 0.0803529 0 0.027694 0 0.0256756 0.027694 0.0550763 0.0256756 0.0514943 0 0.0256756 0 0.0239833 0.0256756 0.0514943 0.0239833 0.0478608 0.0550763 0.0725158 0.0514943 0.0697166 0.0725158 0.0803529 0.0697166 0.0786785 0.0514943 0.0697166 0.0478608 0.0659847 0.0697166 0.0786785 0.0659847 0.076735 0.0824624 0.08872 0.0816269 0.0883508 0.08872 0.0955927 0.0883508 0.0955699 0.0816269 0.0883508 0.0803529 0.0877469 0.0883508 0.0955699 0.0877469 0.0953672 0.0955927 0.102602 0.0955699 0.10273 0.102602 0.109364 0.10273 0.109563 0.0955699 0.10273 0.0953672 0.102731 0.10273 0.109563 0.102731 0.109666 0.0803529 0.0877469 0.0786785 0.0869486 0.0877469 0.0953672 0.0869486 0.0950127 0.0786785 0.0869486 0.076735 0.0860025 0.0869486 0.0950127 0.0860025 0.0945281 0.0953672 0.102731 0.0950127 0.102615 0.102731 0.109666 0.102615 0.10968 0.0950127 0.102615 0.0945281 0.102397 0.102615 0.10968 0.102397 0.109611 0 0.0239833 0 0.0225528 0.0239833 0.0478608 0.0225528 0.0444648 0 0.0225528 0 0.0212971 0.0225528 0.0444648 0.0212971 0.0417721 0.0478608 0.0659847 0.0444648 0.0622002 0.0659847 0.076735 0.0622002 0.0747576 0.0444648 0.0622002 0.0417721 0.0591672 0.0622002 0.0747576 0.0591672 0.0727819 0 0.0212971 0 0.0202398 0.0212971 0.0417721 0.0202398 0.0396357 0 0.0202398 0 0.0193694 0.0202398 0.0396357 0.0193694 0.0379325 0.0417721 0.0591672 0.0396357 0.0567409 0.0591672 0.0727819 0.0567409 0.0709347 0.0396357 0.0567409 0.0379325 0.0547586 0.0567409 0.0709347 0.0547586 0.0692645 0.076735 0.0860025 0.0747576 0.0849314 0.0860025 0.0945281 0.0849314 0.0939412 0.0747576 0.0849314 0.0727819 0.0837923 0.0849314 0.0939412 0.0837923 0.0932732 0.0945281 0.102397 0.0939412 0.10209 0.102397 0.109611 0.10209 0.109469 0.0939412 0.10209 0.0932732 0.101708 0.10209 0.109469 0.101708 0.109261 0.0727819 0.0837923 0.0709347 0.0826183 0.0837923 0.0932732 0.0826183 0.0925483 0.0709347 0.0826183 0.0692645 0.0814505 0.0826183 0.0925483 0.0814505 0.0917856 0.0932732 0.101708 0.0925483 0.101264 0.101708 0.109261 0.101264 0.108997 0.0925483 0.101264 0.0917856 0.100772 0.101264 0.108997 0.100772 0.108683 0.109364 0.115704 0.109563 0.11593 0.115704 0.121542 0.11593 0.121764 0.109563 0.11593 0.109666 0.11608 0.11593 0.121764 0.11608 0.121927 0.121542 0.126842 0.121764 0.127042 0.126842 0.131599 0.127042 0.131765 0.121764 0.127042 0.121927 0.127195 0.127042 0.131765 0.127195 0.131893 0.109666 0.11608 0.10968 0.116159 0.11608 0.121927 0.116159 0.122033 0.10968 0.116159 0.109611 0.116172 0.116159 0.122033 0.116172 0.122085 0.121927 0.127195 0.122033 0.127303 0.127195 0.131893 0.127303 0.131985 0.122033 0.127303 0.122085 0.127366 0.127303 0.131985 0.127366 0.132043 0.131599 0.135824 0.131765 0.135948 0.135824 0.139542 0.135948 0.139621 0.131765 0.135948 0.131893 0.136043 0.135948 0.139621 0.136043 0.139678 0.139542 0.142784 0.139621 0.142817 0.142784 0.145587 0.142817 0.145575 0.139621 0.142817 0.139678 0.142833 0.142817 0.145575 0.142833 0.14555 0.131893 0.136043 0.131985 0.13611 0.136043 0.139678 0.13611 0.139712 0.131985 0.13611 0.132043 0.136149 0.13611 0.139712 0.136149 0.139724 0.139678 0.142833 0.139712 0.142832 0.142833 0.14555 0.142832 0.145513 0.139712 0.142832 0.139724 0.142814 0.142832 0.145513 0.142814 0.145462 0.109611 0.116172 0.109469 0.116125 0.116172 0.122085 0.116125 0.122087 0.109469 0.116125 0.109261 0.116021 0.116125 0.122087 0.116021 0.122043 0.122085 0.127366 0.122087 0.127389 0.127366 0.132043 0.127389 0.132066 0.122087 0.127389 0.122043 0.127373 0.127389 0.132066 0.127373 0.132058 0.109261 0.116021 0.108997 0.115868 0.116021 0.122043 0.115868 0.121955 0.108997 0.115868 0.108683 0.11567 0.115868 0.121955 0.11567 0.121829 0.122043 0.127373 0.121955 0.127321 0.127373 0.132058 0.127321 0.13202 0.121955 0.127321 0.121829 0.127235 0.127321 0.13202 0.127235 0.131952 0.132043 0.136149 0.132066 0.13616 0.136149 0.139724 0.13616 0.139715 0.132066 0.13616 0.132058 0.136146 0.13616 0.139715 0.136146 0.139685 0.139724 0.142814 0.139715 0.142779 0.142814 0.145462 0.142779 0.145399 0.139715 0.142779 0.139685 0.142728 0.142779 0.145399 0.142728 0.145323 0.132058 0.136146 0.13202 0.136106 0.136146 0.139685 0.136106 0.139635 0.13202 0.136106 0.131952 0.136043 0.136106 0.139635 0.136043 0.139565 0.139685 0.142728 0.139635 0.14266 0.142728 0.145323 0.14266 0.145233 0.139635 0.14266 0.139565 0.142576 0.14266 0.145233 0.142576 0.145131 0 0.0193694 0 0.0186609 0.0193694 0.0379325 0.0186609 0.0365657 0 0.0186609 0 0.0180863 0.0186609 0.0365657 0.0180863 0.0354613 0.0379325 0.0547586 0.0365657 0.0531192 0.0547586 0.0692645 0.0531192 0.0677754 0.0365657 0.0531192 0.0354613 0.0517519 0.0531192 0.0677754 0.0517519 0.0664562 0 0.0180863 0 0.01762 0.0180863 0.0354613 0.01762 0.0345629 0 0.01762 0 0.0172403 0.01762 0.0345629 0.0172403 0.033827 0.0354613 0.0517519 0.0345629 0.0506042 0.0517519 0.0664562 0.0506042 0.065291 0.0345629 0.0506042 0.033827 0.0496353 0.0506042 0.065291 0.0496353 0.064263 0.0692645 0.0814505 0.0677754 0.0803213 0.0814505 0.0917856 0.0803213 0.0910035 0.0677754 0.0803213 0.0664562 0.0792503 0.0803213 0.0910035 0.0792503 0.0902188 0.0917856 0.100772 0.0910035 0.100244 0.100772 0.108683 0.100244 0.10833 0.0910035 0.100244 0.0902188 0.0996899 0.100244 0.10833 0.0996899 0.107943 0.0664562 0.0792503 0.065291 0.0782478 0.0792503 0.0902188 0.0782478 0.089445 0.065291 0.0782478 0.064263 0.0773178 0.0782478 0.089445 0.0773178 0.0886922 0.0902188 0.0996899 0.089445 0.099121 0.0996899 0.107943 0.099121 0.107531 0.089445 0.099121 0.0886922 0.0985455 0.099121 0.107531 0.0985455 0.1071 0 0.0172403 0 0.0169292 0.0172403 0.033827 0.0169292 0.0332199 0 0.0169292 0 0.0166728 0.0169292 0.0332199 0.0166728 0.0327152 0.033827 0.0496353 0.0332199 0.048813 0.0496353 0.064263 0.048813 0.0633557 0.0332199 0.048813 0.0327152 0.0481114 0.048813 0.0633557 0.0481114 0.0625543 0 0.0166728 0 0.0164597 0.0166728 0.0327152 0.0164597 0.0322927 0 0.0164597 0 0.0162813 0.0164597 0.0322927 0.0162813 0.031936 0.0327152 0.0481114 0.0322927 0.0475096 0.0481114 0.0625543 0.0475096 0.0618451 0.0322927 0.0475096 0.031936 0.0469905 0.0475096 0.0618451 0.0469905 0.0612161 0.064263 0.0773178 0.0633557 0.0764602 0.0773178 0.0886922 0.0764602 0.0879676 0.0633557 0.0764602 0.0625543 0.0756726 0.0764602 0.0879676 0.0756726 0.0872757 0.0886922 0.0985455 0.0879676 0.0979708 0.0985455 0.1071 0.0979708 0.106656 0.0879676 0.0979708 0.0872757 0.0974028 0.0979708 0.106656 0.0974028 0.106204 0.0625543 0.0756726 0.0618451 0.074951 0.0756726 0.0872757 0.074951 0.086619 0.0618451 0.074951 0.0612161 0.0742907 0.074951 0.086619 0.0742907 0.0859988 0.0872757 0.0974028 0.086619 0.0968463 0.0974028 0.106204 0.0968463 0.105749 0.086619 0.0968463 0.0859988 0.0963047 0.0968463 0.105749 0.0963047 0.105294 0.108683 0.11567 0.10833 0.115432 0.11567 0.121829 0.115432 0.121666 0.10833 0.115432 0.107943 0.115162 0.115432 0.121666 0.115162 0.121472 0.121829 0.127235 0.121666 0.127117 0.127235 0.131952 0.127117 0.131858 0.121666 0.127117 0.121472 0.126971 0.127117 0.131858 0.126971 0.131739 0.107943 0.115162 0.107531 0.114862 0.115162 0.121472 0.114862 0.12125 0.107531 0.114862 0.1071 0.114539 0.114862 0.12125 0.114539 0.121004 0.121472 0.126971 0.12125 0.126799 0.126971 0.131739 0.126799 0.131597 0.12125 0.126799 0.121004 0.126604 0.126799 0.131597 0.126604 0.131433 0.131952 0.136043 0.131858 0.135957 0.136043 0.139565 0.135957 0.139476 0.131858 0.135957 0.131739 0.135849 0.135957 0.139476 0.135849 0.139368 0.139565 0.142576 0.139476 0.142476 0.142576 0.145131 0.142476 0.145016 0.139476 0.142476 0.139368 0.142361 0.142476 0.145016 0.142361 0.144888 0.131739 0.135849 0.131597 0.135721 0.135849 0.139368 0.135721 0.139243 0.131597 0.135721 0.131433 0.135574 0.135721 0.139243 0.135574 0.139102 0.139368 0.142361 0.139243 0.142231 0.142361 0.144888 0.142231 0.144748 0.139243 0.142231 0.139102 0.142087 0.142231 0.144748 0.142087 0.144596 0.1071 0.114539 0.106656 0.114197 0.114539 0.121004 0.114197 0.120736 0.106656 0.114197 0.106204 0.11384 0.114197 0.120736 0.11384 0.12045 0.121004 0.126604 0.120736 0.126387 0.126604 0.131433 0.126387 0.131249 0.120736 0.126387 0.12045 0.126152 0.126387 0.131249 0.126152 0.131048 0.106204 0.11384 0.105749 0.113471 0.11384 0.12045 0.113471 0.120149 0.105749 0.113471 0.105294 0.113095 0.113471 0.120149 0.113095 0.119836 0.12045 0.126152 0.120149 0.125901 0.126152 0.131048 0.125901 0.13083 0.120149 0.125901 0.119836 0.125635 0.125901 0.13083 0.125635 0.130598 0.131433 0.135574 0.131249 0.135409 0.135574 0.139102 0.135409 0.138944 0.131249 0.135409 0.131048 0.135227 0.135409 0.138944 0.135227 0.138772 0.139102 0.142087 0.138944 0.14193 0.142087 0.144596 0.14193 0.144432 0.138944 0.14193 0.138772 0.141759 0.14193 0.144432 0.141759 0.144257 0.131048 0.135227 0.13083 0.13503 0.135227 0.138772 0.13503 0.138586 0.13083 0.13503 0.130598 0.134819 0.13503 0.138586 0.134819 0.138386 0.138772 0.141759 0.138586 0.141575 0.141759 0.144257 0.141575 0.144071 0.138586 0.141575 0.138386 0.141379 0.141575 0.144071 0.141379 0.143873 0.145587 0.147991 0.145575 0.147936 0.147991 0.150036 0.147936 0.149941 0.145575 0.147936 0.14555 0.147872 0.147936 0.149941 0.147872 0.14984 0.150036 0.151763 0.149941 0.151631 0.151763 0.15321 0.151631 0.153045 0.149941 0.151631 0.14984 0.151496 0.151631 0.153045 0.151496 0.152879 0.14555 0.147872 0.145513 0.147798 0.147872 0.14984 0.147798 0.149732 0.145513 0.147798 0.145462 0.147715 0.147798 0.149732 0.147715 0.149617 0.14984 0.151496 0.149732 0.151356 0.151496 0.152879 0.151356 0.152709 0.149732 0.151356 0.149617 0.151211 0.151356 0.152709 0.151211 0.152537 0.15321 0.154413 0.153045 0.15422 0.154413 0.155407 0.15422 0.155188 0.153045 0.15422 0.152879 0.154025 0.15422 0.155188 0.154025 0.154969 0.155407 0.156222 0.155188 0.155981 0.156222 0.156885 0.155981 0.156626 0.155188 0.155981 0.154969 0.155741 0.155981 0.156626 0.155741 0.156368 0.152879 0.154025 0.152709 0.15383 0.154025 0.154969 0.15383 0.15475 0.152709 0.15383 0.152537 0.153632 0.15383 0.15475 0.153632 0.154531 0.154969 0.155741 0.15475 0.155502 0.155741 0.156368 0.155502 0.156111 0.15475 0.155502 0.154531 0.155263 0.155502 0.156111 0.155263 0.155854 0.145462 0.147715 0.145399 0.147622 0.147715 0.149617 0.147622 0.149495 0.145399 0.147622 0.145323 0.14752 0.147622 0.149495 0.14752 0.149366 0.149617 0.151211 0.149495 0.151061 0.151211 0.152537 0.151061 0.152361 0.149495 0.151061 0.149366 0.150906 0.151061 0.152361 0.150906 0.152182 0.145323 0.14752 0.145233 0.147407 0.14752 0.149366 0.147407 0.149229 0.145233 0.147407 0.145131 0.147283 0.147407 0.149229 0.147283 0.149084 0.149366 0.150906 0.149229 0.150745 0.150906 0.152182 0.150745 0.151998 0.149229 0.150745 0.149084 0.150578 0.150745 0.151998 0.150578 0.15181 0.152537 0.153632 0.152361 0.153433 0.153632 0.154531 0.153433 0.15431 0.152361 0.153433 0.152182 0.153231 0.153433 0.15431 0.153231 0.154088 0.154531 0.155263 0.15431 0.155023 0.155263 0.155854 0.155023 0.155598 0.15431 0.155023 0.154088 0.154782 0.155023 0.155598 0.154782 0.155341 0.152182 0.153231 0.151998 0.153026 0.153231 0.154088 0.153026 0.153863 0.151998 0.153026 0.15181 0.152818 0.153026 0.153863 0.152818 0.153637 0.154088 0.154782 0.153863 0.15454 0.154782 0.155341 0.15454 0.155084 0.153863 0.15454 0.153637 0.154297 0.15454 0.155084 0.154297 0.154826 0.156885 0.157421 0.156626 0.157146 0.157421 0.157852 0.157146 0.157564 0.156626 0.157146 0.156368 0.156873 0.157146 0.157564 0.156873 0.157278 0.157852 0.158195 0.157564 0.157897 0.158195 0.158467 0.157897 0.15816 0.157564 0.157897 0.157278 0.1576 0.157897 0.15816 0.1576 0.157855 0.156368 0.156873 0.156111 0.156601 0.156873 0.157278 0.156601 0.156993 0.156111 0.156601 0.155854 0.15633 0.156601 0.156993 0.15633 0.15671 0.157278 0.1576 0.156993 0.157305 0.1576 0.157855 0.157305 0.157551 0.156993 0.157305 0.15671 0.157011 0.157305 0.157551 0.157011 0.157248 0.158467 0.158681 0.15816 0.158367 0.158681 0.158848 0.158367 0.158529 0.15816 0.158367 0.157855 0.158055 0.158367 0.158529 0.158055 0.158211 0.158848 0.158978 0.158529 0.158654 0.158978 0.159077 0.158654 0.158751 0.158529 0.158654 0.158211 0.158332 0.158654 0.158751 0.158332 0.158425 0.157855 0.158055 0.157551 0.157744 0.158055 0.158211 0.157744 0.157894 0.157551 0.157744 0.157248 0.157434 0.157744 0.157894 0.157434 0.157578 0.158211 0.158332 0.157894 0.158011 0.158332 0.158425 0.158011 0.1581 0.157894 0.158011 0.157578 0.15769 0.158011 0.1581 0.15769 0.157776 0.155854 0.15633 0.155598 0.156059 0.15633 0.15671 0.156059 0.156427 0.155598 0.156059 0.155341 0.155789 0.156059 0.156427 0.155789 0.156144 0.15671 0.157011 0.156427 0.156718 0.157011 0.157248 0.156718 0.156946 0.156427 0.156718 0.156144 0.156425 0.156718 0.156946 0.156425 0.156645 0.155341 0.155789 0.155084 0.155518 0.155789 0.156144 0.155518 0.155862 0.155084 0.155518 0.154826 0.155247 0.155518 0.155862 0.155247 0.155579 0.156144 0.156425 0.155862 0.156133 0.156425 0.156645 0.156133 0.156344 0.155862 0.156133 0.155579 0.15584 0.156133 0.156344 0.15584 0.156044 0.157248 0.157434 0.156946 0.157125 0.157434 0.157578 0.157125 0.157264 0.156946 0.157125 0.156645 0.156817 0.157125 0.157264 0.156817 0.15695 0.157578 0.15769 0.157264 0.157371 0.15769 0.157776 0.157371 0.157453 0.157264 0.157371 0.15695 0.157052 0.157371 0.157453 0.157052 0.15713 0.156645 0.156817 0.156344 0.156509 0.156817 0.15695 0.156509 0.156636 0.156344 0.156509 0.156044 0.156202 0.156509 0.156636 0.156202 0.156323 0.15695 0.157052 0.156636 0.156734 0.157052 0.15713 0.156734 0.156808 0.156636 0.156734 0.156323 0.156416 0.156734 0.156808 0.156416 0.156487 0.145131 0.147283 0.145016 0.14715 0.147283 0.149084 0.14715 0.148931 0.145016 0.14715 0.144888 0.147006 0.14715 0.148931 0.147006 0.148769 0.149084 0.150578 0.148931 0.150405 0.150578 0.15181 0.150405 0.151617 0.148931 0.150405 0.148769 0.150225 0.150405 0.151617 0.150225 0.151419 0.144888 0.147006 0.144748 0.146853 0.147006 0.148769 0.146853 0.1486 0.144748 0.146853 0.144596 0.146689 0.146853 0.1486 0.146689 0.148422 0.148769 0.150225 0.1486 0.150039 0.150225 0.151419 0.150039 0.151216 0.1486 0.150039 0.148422 0.149846 0.150039 0.151216 0.149846 0.151007 0.15181 0.152818 0.151617 0.152606 0.152818 0.153637 0.152606 0.153407 0.151617 0.152606 0.151419 0.152391 0.152606 0.153407 0.152391 0.153175 0.153637 0.154297 0.153407 0.154052 0.154297 0.154826 0.154052 0.154567 0.153407 0.154052 0.153175 0.153805 0.154052 0.154567 0.153805 0.154306 0.151419 0.152391 0.151216 0.152171 0.152391 0.153175 0.152171 0.15294 0.151216 0.152171 0.151007 0.151947 0.152171 0.15294 0.151947 0.152702 0.153175 0.153805 0.15294 0.153555 0.153805 0.154306 0.153555 0.154044 0.15294 0.153555 0.152702 0.153303 0.153555 0.154044 0.153303 0.153779 0.144596 0.146689 0.144432 0.146515 0.146689 0.148422 0.146515 0.148235 0.144432 0.146515 0.144257 0.146331 0.146515 0.148235 0.146331 0.148041 0.148422 0.149846 0.148235 0.149646 0.149846 0.151007 0.149646 0.150793 0.148235 0.149646 0.148041 0.149439 0.149646 0.150793 0.149439 0.150573 0.144257 0.146331 0.144071 0.146138 0.146331 0.148041 0.146138 0.147838 0.144071 0.146138 0.143873 0.145935 0.146138 0.147838 0.145935 0.147627 0.148041 0.149439 0.147838 0.149225 0.149439 0.150573 0.149225 0.150347 0.147838 0.149225 0.147627 0.149004 0.149225 0.150347 0.149004 0.150115 0.151007 0.151947 0.150793 0.151718 0.151947 0.152702 0.151718 0.15246 0.150793 0.151718 0.150573 0.151485 0.151718 0.15246 0.151485 0.152214 0.152702 0.153303 0.15246 0.153049 0.153303 0.153779 0.153049 0.153513 0.15246 0.153049 0.152214 0.152791 0.153049 0.153513 0.152791 0.153244 0.150573 0.151485 0.150347 0.151247 0.151485 0.152214 0.151247 0.151964 0.150347 0.151247 0.150115 0.151004 0.151247 0.151964 0.151004 0.15171 0.152214 0.152791 0.151964 0.15253 0.152791 0.153244 0.15253 0.152972 0.151964 0.15253 0.15171 0.152265 0.15253 0.152972 0.152265 0.152698 0.154826 0.155247 0.154567 0.154975 0.155247 0.155579 0.154975 0.155297 0.154567 0.154975 0.154306 0.154702 0.154975 0.155297 0.154702 0.155013 0.155579 0.15584 0.155297 0.155548 0.15584 0.156044 0.155548 0.155744 0.155297 0.155548 0.155013 0.155256 0.155548 0.155744 0.155256 0.155443 0.154306 0.154702 0.154044 0.154428 0.154702 0.155013 0.154428 0.154729 0.154044 0.154428 0.153779 0.154153 0.154428 0.154729 0.154153 0.154444 0.155013 0.155256 0.154729 0.154962 0.155256 0.155443 0.154962 0.155142 0.154729 0.154962 0.154444 0.154669 0.154962 0.155142 0.154669 0.154841 0.156044 0.156202 0.155744 0.155894 0.156202 0.156323 0.155894 0.15601 0.155744 0.155894 0.155443 0.155587 0.155894 0.15601 0.155587 0.155697 0.156323 0.156416 0.15601 0.156098 0.156416 0.156487 0.156098 0.156165 0.15601 0.156098 0.155697 0.155781 0.156098 0.156165 0.155781 0.155844 0.155443 0.155587 0.155142 0.15528 0.155587 0.155697 0.15528 0.155385 0.155142 0.15528 0.154841 0.154972 0.15528 0.155385 0.154972 0.155072 0.155697 0.155781 0.155385 0.155464 0.155781 0.155844 0.155464 0.155523 0.155385 0.155464 0.155072 0.155146 0.155464 0.155523 0.155146 0.155202 0.153779 0.154153 0.153513 0.153876 0.154153 0.154444 0.153876 0.154157 0.153513 0.153876 0.153244 0.153597 0.153876 0.154157 0.153597 0.153869 0.154444 0.154669 0.154157 0.154374 0.154669 0.154841 0.154374 0.154539 0.154157 0.154374 0.153869 0.154078 0.154374 0.154539 0.154078 0.154237 0.153244 0.153597 0.152972 0.153316 0.153597 0.153869 0.153316 0.15358 0.152972 0.153316 0.152698 0.153032 0.153316 0.15358 0.153032 0.153288 0.153869 0.154078 0.15358 0.153781 0.154078 0.154237 0.153781 0.153933 0.15358 0.153781 0.153288 0.153483 0.153781 0.153933 0.153483 0.153628 0.154841 0.154972 0.154539 0.154664 0.154972 0.155072 0.154664 0.154759 0.154539 0.154664 0.154237 0.154356 0.154664 0.154759 0.154356 0.154445 0.155072 0.155146 0.154759 0.154829 0.155146 0.155202 0.154829 0.154881 0.154759 0.154829 0.154445 0.154511 0.154829 0.154881 0.154511 0.154559 0.154237 0.154356 0.153933 0.154047 0.154356 0.154445 0.154047 0.154131 0.153933 0.154047 0.153628 0.153737 0.154047 0.154131 0.153737 0.153816 0.154445 0.154511 0.154131 0.154193 0.154511 0.154559 0.154193 0.154238 0.154131 0.154193 0.153816 0.153874 0.154193 0.154238 0.153874 0.153916 0 0.0162813 0 0.0161305 0.0162813 0.031936 0.0161305 0.0316325 0 0.0161305 0 0.016002 0.0161305 0.0316325 0.016002 0.0313722 0.031936 0.0469905 0.0316325 0.0465403 0.0469905 0.0612161 0.0465403 0.0606567 0.0316325 0.0465403 0.0313722 0.0461475 0.0465403 0.0606567 0.0461475 0.0601578 0 0.016002 0 0.0158914 0.016002 0.0313722 0.0158914 0.0311469 0 0.0158914 0 0.0157953 0.0158914 0.0311469 0.0157953 0.0309504 0.0313722 0.0461475 0.0311469 0.0458028 0.0461475 0.0601578 0.0458028 0.0597113 0.0311469 0.0458028 0.0309504 0.0454983 0.0458028 0.0597113 0.0454983 0.0593103 0.0612161 0.0742907 0.0606567 0.0736869 0.0742907 0.0859988 0.0736869 0.0854148 0.0606567 0.0736869 0.0601578 0.0731347 0.0736869 0.0854148 0.0731347 0.0848663 0.0859988 0.0963047 0.0854148 0.0957806 0.0963047 0.105294 0.0957806 0.104843 0.0854148 0.0957806 0.0848663 0.0952757 0.0957806 0.104843 0.0952757 0.104399 0.0601578 0.0731347 0.0597113 0.0726291 0.0731347 0.0848663 0.0726291 0.084352 0.0597113 0.0726291 0.0593103 0.0721659 0.0726291 0.084352 0.0721659 0.0838703 0.0848663 0.0952757 0.084352 0.0947908 0.0952757 0.104399 0.0947908 0.103963 0.084352 0.0947908 0.0838703 0.0943266 0.0947908 0.103963 0.0943266 0.103536 0 0.0157953 0 0.015711 0.0157953 0.0309504 0.015711 0.0307774 0 0.015711 0 0.0156364 0.015711 0.0307774 0.0156364 0.0306239 0.0309504 0.0454983 0.0307774 0.0452278 0.0454983 0.0593103 0.0452278 0.0589487 0.0307774 0.0452278 0.0306239 0.0449859 0.0452278 0.0589487 0.0449859 0.0586215 0 0.0156364 0 0.0155697 0.0156364 0.0306239 0.0155697 0.0304864 0 0.015569