# vtk DataFile Version 3.0
#This file was generated by the deal.II library on 2022/1/6 at 22:47:01
ASCII
DATASET UNSTRUCTURED_GRID

POINTS 16384 double
0 0 0
0.1875 0 0
0 0.046875 0
0.1875 0.046875 0
0.1875 0 0
0.375 0 0
0.1875 0.046875 0
0.375 0.046875 0
0 0.046875 0
0.1875 0.046875 0
0 0.09375 0
0.1875 0.09375 0
0.1875 0.046875 0
0.375 0.046875 0
0.1875 0.09375 0
0.375 0.09375 0
0.375 0 0
0.5625 0 0
0.375 0.046875 0
0.5625 0.046875 0
0.5625 0 0
0.75 0 0
0.5625 0.046875 0
0.75 0.046875 0
0.375 0.046875 0
0.5625 0.046875 0
0.375 0.09375 0
0.5625 0.09375 0
0.5625 0.046875 0
0.75 0.046875 0
0.5625 0.09375 0
0.75 0.09375 0
0 0.09375 0
0.1875 0.09375 0
0 0.140625 0
0.1875 0.140625 0
0.1875 0.09375 0
0.375 0.09375 0
0.1875 0.140625 0
0.375 0.140625 0
0 0.140625 0
0.1875 0.140625 0
0 0.1875 0
0.1875 0.1875 0
0.1875 0.140625 0
0.375 0.140625 0
0.1875 0.1875 0
0.375 0.1875 0
0.375 0.09375 0
0.5625 0.09375 0
0.375 0.140625 0
0.5625 0.140625 0
0.5625 0.09375 0
0.75 0.09375 0
0.5625 0.140625 0
0.75 0.140625 0
0.375 0.140625 0
0.5625 0.140625 0
0.375 0.1875 0
0.5625 0.1875 0
0.5625 0.140625 0
0.75 0.140625 0
0.5625 0.1875 0
0.75 0.1875 0
0.75 0 0
0.9375 0 0
0.75 0.046875 0
0.9375 0.046875 0
0.9375 0 0
1.125 0 0
0.9375 0.046875 0
1.125 0.046875 0
0.75 0.046875 0
0.9375 0.046875 0
0.75 0.09375 0
0.9375 0.09375 0
0.9375 0.046875 0
1.125 0.046875 0
0.9375 0.09375 0
1.125 0.09375 0
1.125 0 0
1.3125 0 0
1.125 0.046875 0
1.3125 0.046875 0
1.3125 0 0
1.5 0 0
1.3125 0.046875 0
1.5 0.046875 0
1.125 0.046875 0
1.3125 0.046875 0
1.125 0.09375 0
1.3125 0.09375 0
1.3125 0.046875 0
1.5 0.046875 0
1.3125 0.09375 0
1.5 0.09375 0
0.75 0.09375 0
0.9375 0.09375 0
0.75 0.140625 0
0.9375 0.140625 0
0.9375 0.09375 0
1.125 0.09375 0
0.9375 0.140625 0
1.125 0.140625 0
0.75 0.140625 0
0.9375 0.140625 0
0.75 0.1875 0
0.9375 0.1875 0
0.9375 0.140625 0
1.125 0.140625 0
0.9375 0.1875 0
1.125 0.1875 0
1.125 0.09375 0
1.3125 0.09375 0
1.125 0.140625 0
1.3125 0.140625 0
1.3125 0.09375 0
1.5 0.09375 0
1.3125 0.140625 0
1.5 0.140625 0
1.125 0.140625 0
1.3125 0.140625 0
1.125 0.1875 0
1.3125 0.1875 0
1.3125 0.140625 0
1.5 0.140625 0
1.3125 0.1875 0
1.5 0.1875 0
0 0.1875 0
0.1875 0.1875 0
0 0.234375 0
0.1875 0.234375 0
0.1875 0.1875 0
0.375 0.1875 0
0.1875 0.234375 0
0.375 0.234375 0
0 0.234375 0
0.1875 0.234375 0
0 0.28125 0
0.1875 0.28125 0
0.1875 0.234375 0
0.375 0.234375 0
0.1875 0.28125 0
0.375 0.28125 0
0.375 0.1875 0
0.5625 0.1875 0
0.375 0.234375 0
0.5625 0.234375 0
0.5625 0.1875 0
0.75 0.1875 0
0.5625 0.234375 0
0.75 0.234375 0
0.375 0.234375 0
0.5625 0.234375 0
0.375 0.28125 0
0.5625 0.28125 0
0.5625 0.234375 0
0.75 0.234375 0
0.5625 0.28125 0
0.75 0.28125 0
0 0.28125 0
0.1875 0.28125 0
0 0.328125 0
0.1875 0.328125 0
0.1875 0.28125 0
0.375 0.28125 0
0.1875 0.328125 0
0.375 0.328125 0
0 0.328125 0
0.1875 0.328125 0
0 0.375 0
0.1875 0.375 0
0.1875 0.328125 0
0.375 0.328125 0
0.1875 0.375 0
0.375 0.375 0
0.375 0.28125 0
0.5625 0.28125 0
0.375 0.328125 0
0.5625 0.328125 0
0.5625 0.28125 0
0.75 0.28125 0
0.5625 0.328125 0
0.75 0.328125 0
0.375 0.328125 0
0.5625 0.328125 0
0.375 0.375 0
0.5625 0.375 0
0.5625 0.328125 0
0.75 0.328125 0
0.5625 0.375 0
0.75 0.375 0
0.75 0.1875 0
0.9375 0.1875 0
0.75 0.234375 0
0.9375 0.234375 0
0.9375 0.1875 0
1.125 0.1875 0
0.9375 0.234375 0
1.125 0.234375 0
0.75 0.234375 0
0.9375 0.234375 0
0.75 0.28125 0
0.9375 0.28125 0
0.9375 0.234375 0
1.125 0.234375 0
0.9375 0.28125 0
1.125 0.28125 0
1.125 0.1875 0
1.3125 0.1875 0
1.125 0.234375 0
1.3125 0.234375 0
1.3125 0.1875 0
1.5 0.1875 0
1.3125 0.234375 0
1.5 0.234375 0
1.125 0.234375 0
1.3125 0.234375 0
1.125 0.28125 0
1.3125 0.28125 0
1.3125 0.234375 0
1.5 0.234375 0
1.3125 0.28125 0
1.5 0.28125 0
0.75 0.28125 0
0.9375 0.28125 0
0.75 0.328125 0
0.9375 0.328125 0
0.9375 0.28125 0
1.125 0.28125 0
0.9375 0.328125 0
1.125 0.328125 0
0.75 0.328125 0
0.9375 0.328125 0
0.75 0.375 0
0.9375 0.375 0
0.9375 0.328125 0
1.125 0.328125 0
0.9375 0.375 0
1.125 0.375 0
1.125 0.28125 0
1.3125 0.28125 0
1.125 0.328125 0
1.3125 0.328125 0
1.3125 0.28125 0
1.5 0.28125 0
1.3125 0.328125 0
1.5 0.328125 0
1.125 0.328125 0
1.3125 0.328125 0
1.125 0.375 0
1.3125 0.375 0
1.3125 0.328125 0
1.5 0.328125 0
1.3125 0.375 0
1.5 0.375 0
1.5 0 0
1.6875 0 0
1.5 0.046875 0
1.6875 0.046875 0
1.6875 0 0
1.875 0 0
1.6875 0.046875 0
1.875 0.046875 0
1.5 0.046875 0
1.6875 0.046875 0
1.5 0.09375 0
1.6875 0.09375 0
1.6875 0.046875 0
1.875 0.046875 0
1.6875 0.09375 0
1.875 0.09375 0
1.875 0 0
2.0625 0 0
1.875 0.046875 0
2.0625 0.046875 0
2.0625 0 0
2.25 0 0
2.0625 0.046875 0
2.25 0.046875 0
1.875 0.046875 0
2.0625 0.046875 0
1.875 0.09375 0
2.0625 0.09375 0
2.0625 0.046875 0
2.25 0.046875 0
2.0625 0.09375 0
2.25 0.09375 0
1.5 0.09375 0
1.6875 0.09375 0
1.5 0.140625 0
1.6875 0.140625 0
1.6875 0.09375 0
1.875 0.09375 0
1.6875 0.140625 0
1.875 0.140625 0
1.5 0.140625 0
1.6875 0.140625 0
1.5 0.1875 0
1.6875 0.1875 0
1.6875 0.140625 0
1.875 0.140625 0
1.6875 0.1875 0
1.875 0.1875 0
1.875 0.09375 0
2.0625 0.09375 0
1.875 0.140625 0
2.0625 0.140625 0
2.0625 0.09375 0
2.25 0.09375 0
2.0625 0.140625 0
2.25 0.140625 0
1.875 0.140625 0
2.0625 0.140625 0
1.875 0.1875 0
2.0625 0.1875 0
2.0625 0.140625 0
2.25 0.140625 0
2.0625 0.1875 0
2.25 0.1875 0
2.25 0 0
2.4375 0 0
2.25 0.046875 0
2.4375 0.046875 0
2.4375 0 0
2.625 0 0
2.4375 0.046875 0
2.625 0.046875 0
2.25 0.046875 0
2.4375 0.046875 0
2.25 0.09375 0
2.4375 0.09375 0
2.4375 0.046875 0
2.625 0.046875 0
2.4375 0.09375 0
2.625 0.09375 0
2.625 0 0
2.8125 0 0
2.625 0.046875 0
2.8125 0.046875 0
2.8125 0 0
3 0 0
2.8125 0.046875 0
3 0.046875 0
2.625 0.046875 0
2.8125 0.046875 0
2.625 0.09375 0
2.8125 0.09375 0
2.8125 0.046875 0
3 0.046875 0
2.8125 0.09375 0
3 0.09375 0
2.25 0.09375 0
2.4375 0.09375 0
2.25 0.140625 0
2.4375 0.140625 0
2.4375 0.09375 0
2.625 0.09375 0
2.4375 0.140625 0
2.625 0.140625 0
2.25 0.140625 0
2.4375 0.140625 0
2.25 0.1875 0
2.4375 0.1875 0
2.4375 0.140625 0
2.625 0.140625 0
2.4375 0.1875 0
2.625 0.1875 0
2.625 0.09375 0
2.8125 0.09375 0
2.625 0.140625 0
2.8125 0.140625 0
2.8125 0.09375 0
3 0.09375 0
2.8125 0.140625 0
3 0.140625 0
2.625 0.140625 0
2.8125 0.140625 0
2.625 0.1875 0
2.8125 0.1875 0
2.8125 0.140625 0
3 0.140625 0
2.8125 0.1875 0
3 0.1875 0
1.5 0.1875 0
1.6875 0.1875 0
1.5 0.234375 0
1.6875 0.234375 0
1.6875 0.1875 0
1.875 0.1875 0
1.6875 0.234375 0
1.875 0.234375 0
1.5 0.234375 0
1.6875 0.234375 0
1.5 0.28125 0
1.6875 0.28125 0
1.6875 0.234375 0
1.875 0.234375 0
1.6875 0.28125 0
1.875 0.28125 0
1.875 0.1875 0
2.0625 0.1875 0
1.875 0.234375 0
2.0625 0.234375 0
2.0625 0.1875 0
2.25 0.1875 0
2.0625 0.234375 0
2.25 0.234375 0
1.875 0.234375 0
2.0625 0.234375 0
1.875 0.28125 0
2.0625 0.28125 0
2.0625 0.234375 0
2.25 0.234375 0
2.0625 0.28125 0
2.25 0.28125 0
1.5 0.28125 0
1.6875 0.28125 0
1.5 0.328125 0
1.6875 0.328125 0
1.6875 0.28125 0
1.875 0.28125 0
1.6875 0.328125 0
1.875 0.328125 0
1.5 0.328125 0
1.6875 0.328125 0
1.5 0.375 0
1.6875 0.375 0
1.6875 0.328125 0
1.875 0.328125 0
1.6875 0.375 0
1.875 0.375 0
1.875 0.28125 0
2.0625 0.28125 0
1.875 0.328125 0
2.0625 0.328125 0
2.0625 0.28125 0
2.25 0.28125 0
2.0625 0.328125 0
2.25 0.328125 0
1.875 0.328125 0
2.0625 0.328125 0
1.875 0.375 0
2.0625 0.375 0
2.0625 0.328125 0
2.25 0.328125 0
2.0625 0.375 0
2.25 0.375 0
2.25 0.1875 0
2.4375 0.1875 0
2.25 0.234375 0
2.4375 0.234375 0
2.4375 0.1875 0
2.625 0.1875 0
2.4375 0.234375 0
2.625 0.234375 0
2.25 0.234375 0
2.4375 0.234375 0
2.25 0.28125 0
2.4375 0.28125 0
2.4375 0.234375 0
2.625 0.234375 0
2.4375 0.28125 0
2.625 0.28125 0
2.625 0.1875 0
2.8125 0.1875 0
2.625 0.234375 0
2.8125 0.234375 0
2.8125 0.1875 0
3 0.1875 0
2.8125 0.234375 0
3 0.234375 0
2.625 0.234375 0
2.8125 0.234375 0
2.625 0.28125 0
2.8125 0.28125 0
2.8125 0.234375 0
3 0.234375 0
2.8125 0.28125 0
3 0.28125 0
2.25 0.28125 0
2.4375 0.28125 0
2.25 0.328125 0
2.4375 0.328125 0
2.4375 0.28125 0
2.625 0.28125 0
2.4375 0.328125 0
2.625 0.328125 0
2.25 0.328125 0
2.4375 0.328125 0
2.25 0.375 0
2.4375 0.375 0
2.4375 0.328125 0
2.625 0.328125 0
2.4375 0.375 0
2.625 0.375 0
2.625 0.28125 0
2.8125 0.28125 0
2.625 0.328125 0
2.8125 0.328125 0
2.8125 0.28125 0
3 0.28125 0
2.8125 0.328125 0
3 0.328125 0
2.625 0.328125 0
2.8125 0.328125 0
2.625 0.375 0
2.8125 0.375 0
2.8125 0.328125 0
3 0.328125 0
2.8125 0.375 0
3 0.375 0
0 0.375 0
0.1875 0.375 0
0 0.421875 0
0.1875 0.421875 0
0.1875 0.375 0
0.375 0.375 0
0.1875 0.421875 0
0.375 0.421875 0
0 0.421875 0
0.1875 0.421875 0
0 0.46875 0
0.1875 0.46875 0
0.1875 0.421875 0
0.375 0.421875 0
0.1875 0.46875 0
0.375 0.46875 0
0.375 0.375 0
0.5625 0.375 0
0.375 0.421875 0
0.5625 0.421875 0
0.5625 0.375 0
0.75 0.375 0
0.5625 0.421875 0
0.75 0.421875 0
0.375 0.421875 0
0.5625 0.421875 0
0.375 0.46875 0
0.5625 0.46875 0
0.5625 0.421875 0
0.75 0.421875 0
0.5625 0.46875 0
0.75 0.46875 0
0 0.46875 0
0.1875 0.46875 0
0 0.515625 0
0.1875 0.515625 0
0.1875 0.46875 0
0.375 0.46875 0
0.1875 0.515625 0
0.375 0.515625 0
0 0.515625 0
0.1875 0.515625 0
0 0.5625 0
0.1875 0.5625 0
0.1875 0.515625 0
0.375 0.515625 0
0.1875 0.5625 0
0.375 0.5625 0
0.375 0.46875 0
0.5625 0.46875 0
0.375 0.515625 0
0.5625 0.515625 0
0.5625 0.46875 0
0.75 0.46875 0
0.5625 0.515625 0
0.75 0.515625 0
0.375 0.515625 0
0.5625 0.515625 0
0.375 0.5625 0
0.5625 0.5625 0
0.5625 0.515625 0
0.75 0.515625 0
0.5625 0.5625 0
0.75 0.5625 0
0.75 0.375 0
0.9375 0.375 0
0.75 0.421875 0
0.9375 0.421875 0
0.9375 0.375 0
1.125 0.375 0
0.9375 0.421875 0
1.125 0.421875 0
0.75 0.421875 0
0.9375 0.421875 0
0.75 0.46875 0
0.9375 0.46875 0
0.9375 0.421875 0
1.125 0.421875 0
0.9375 0.46875 0
1.125 0.46875 0
1.125 0.375 0
1.3125 0.375 0
1.125 0.421875 0
1.3125 0.421875 0
1.3125 0.375 0
1.5 0.375 0
1.3125 0.421875 0
1.5 0.421875 0
1.125 0.421875 0
1.3125 0.421875 0
1.125 0.46875 0
1.3125 0.46875 0
1.3125 0.421875 0
1.5 0.421875 0
1.3125 0.46875 0
1.5 0.46875 0
0.75 0.46875 0
0.9375 0.46875 0
0.75 0.515625 0
0.9375 0.515625 0
0.9375 0.46875 0
1.125 0.46875 0
0.9375 0.515625 0
1.125 0.515625 0
0.75 0.515625 0
0.9375 0.515625 0
[...]
POINT_DATA 16384
SCALARS x_displacement double 1
LOOKUP_TABLE default
0 0.0326574 0 0.0293182 0.0326574 0.0573982 0.0293182 0.0559421 0 0.0293182 0 0.0270207 0.0293182 0.0559421 0.0270207 0.0533613 0.0573982 0.0723682 0.0559421 0.0712761 0.0723682 0.0773858 0.0712761 0.0767681 0.0559421 0.0712761 0.0533613 0.0694711 0.0712761 0.0767681 0.0694711 0.0756897 0 0.0270207 0 0.025119 0.0270207 0.0533613 0.025119 0.0499554 0 0.025119 0 0.0235135 0.025119 0.0499554 0.0235135 0.0464659 0.0533613 0.0694711 0.0499554 0.0668558 0.0694711 0.0756897 0.0668558 0.0741896 0.0499554 0.0668558 0.0464659 0.0632838 0.0668558 0.0741896 0.0632838 0.0724009 0.0773858 0.081818 0.0767681 0.0816351 0.081818 0.0866571 0.0816351 0.0867824 0.0767681 0.0816351 0.0756897 0.0812006 0.0816351 0.0867824 0.0812006 0.0867161 0.0866571 0.0914704 0.0867824 0.0917042 0.0914704 0.0959239 0.0917042 0.0961873 0.0867824 0.0917042 0.0867161 0.0918046 0.0917042 0.0961873 0.0918046 0.0963516 0.0756897 0.0812006 0.0741896 0.0805556 0.0812006 0.0867161 0.0805556 0.0864867 0.0741896 0.0805556 0.0724009 0.0797479 0.0805556 0.0864867 0.0797479 0.0861165 0.0867161 0.0918046 0.0864867 0.0917817 0.0918046 0.0963516 0.0917817 0.0964238 0.0864867 0.0917817 0.0861165 0.0916497 0.0917817 0.0964238 0.0916497 0.0964109 0 0.0235135 0 0.0221498 0.0235135 0.0464659 0.0221498 0.0431875 0 0.0221498 0 0.0209469 0.0221498 0.0431875 0.0209469 0.0405911 0.0464659 0.0632838 0.0431875 0.0596372 0.0632838 0.0724009 0.0596372 0.0705604 0.0431875 0.0596372 0.0405911 0.0567222 0.0596372 0.0705604 0.0567222 0.0687053 0 0.0209469 0 0.0199319 0.0209469 0.0405911 0.0199319 0.0385339 0 0.0199319 0 0.0190959 0.0199319 0.0385339 0.0190959 0.0368961 0.0405911 0.0567222 0.0385339 0.0543966 0.0567222 0.0687053 0.0543966 0.0669639 0.0385339 0.0543966 0.0368961 0.0524999 0.0543966 0.0669639 0.0524999 0.065386 0.0724009 0.0797479 0.0705604 0.0788012 0.0797479 0.0861165 0.0788012 0.0856338 0.0705604 0.0788012 0.0687053 0.0777735 0.0788012 0.0856338 0.0777735 0.0850604 0.0861165 0.0916497 0.0856338 0.091422 0.0916497 0.0964109 0.091422 0.096321 0.0856338 0.091422 0.0850604 0.0911131 0.091422 0.096321 0.0911131 0.0961624 0.0687053 0.0777735 0.0669639 0.0766989 0.0777735 0.0850604 0.0766989 0.0844212 0.0669639 0.0766989 0.065386 0.0756195 0.0766989 0.0844212 0.0756195 0.0837358 0.0850604 0.0911131 0.0844212 0.0907364 0.0911131 0.0961624 0.0907364 0.0959438 0.0844212 0.0907364 0.0837358 0.0903057 0.0907364 0.0959438 0.0903057 0.0956733 0.0959239 0.0998973 0.0961873 0.100146 0.0998973 0.103361 0.100146 0.103569 0.0961873 0.100146 0.0963516 0.100321 0.100146 0.103569 0.100321 0.103721 0.103361 0.106326 0.103569 0.106479 0.106326 0.108829 0.106479 0.10892 0.103569 0.106479 0.103721 0.106591 0.106479 0.10892 0.106591 0.108982 0.0963516 0.100321 0.0964238 0.100425 0.100321 0.103721 0.100425 0.10382 0.0964238 0.100425 0.0964109 0.100463 0.100425 0.10382 0.100463 0.103869 0.103721 0.106591 0.10382 0.106663 0.106591 0.108982 0.106663 0.109015 0.10382 0.106663 0.103869 0.106697 0.106663 0.109015 0.106697 0.10902 0.108829 0.110915 0.10892 0.110943 0.110915 0.112635 0.110943 0.112602 0.10892 0.110943 0.108982 0.110951 0.110943 0.112602 0.110951 0.112557 0.112635 0.114037 0.112602 0.113949 0.114037 0.11517 0.113949 0.115032 0.112602 0.113949 0.112557 0.113853 0.113949 0.115032 0.113853 0.114891 0.108982 0.110951 0.109015 0.11094 0.110951 0.112557 0.11094 0.112499 0.109015 0.11094 0.10902 0.110908 0.11094 0.112499 0.110908 0.112427 0.112557 0.113853 0.112499 0.11375 0.113853 0.114891 0.11375 0.114747 0.112499 0.11375 0.112427 0.113639 0.11375 0.114747 0.113639 0.114598 0.0964109 0.100463 0.096321 0.10044 0.100463 0.103869 0.10044 0.103869 0.096321 0.10044 0.0961624 0.100361 0.10044 0.103869 0.100361 0.103825 0.103869 0.106697 0.103869 0.106695 0.106697 0.10902 0.106695 0.108998 0.103869 0.106695 0.103825 0.106657 0.106695 0.108998 0.106657 0.108949 0.0961624 0.100361 0.0959438 0.100231 0.100361 0.103825 0.100231 0.10374 0.0959438 0.100231 0.0956733 0.100056 0.100231 0.10374 0.100056 0.103617 0.103825 0.106657 0.10374 0.106587 0.106657 0.108949 0.106587 0.108874 0.10374 0.106587 0.103617 0.106486 0.106587 0.108874 0.106486 0.108775 0.10902 0.110908 0.108998 0.110856 0.110908 0.112427 0.110856 0.112341 0.108998 0.110856 0.108949 0.110785 0.110856 0.112341 0.110785 0.112242 0.112427 0.113639 0.112341 0.113518 0.113639 0.114598 0.113518 0.114443 0.112341 0.113518 0.112242 0.113388 0.113518 0.114443 0.113388 0.114282 0.108949 0.110785 0.108874 0.110694 0.110785 0.112242 0.110694 0.112128 0.108874 0.110694 0.108775 0.110585 0.110694 0.112128 0.110585 0.112001 0.112242 0.113388 0.112128 0.113248 0.113388 0.114282 0.113248 0.114116 0.112128 0.113248 0.112001 0.113099 0.113248 0.114116 0.113099 0.113942 0 0.0190959 0 0.0184156 0.0190959 0.0368961 0.0184156 0.0355835 0 0.0184156 0 0.0178643 0.0184156 0.0355835 0.0178643 0.0345243 0.0368961 0.0524999 0.0355835 0.0509332 0.0524999 0.065386 0.0509332 0.063977 0.0355835 0.0509332 0.0345243 0.0496276 0.0509332 0.063977 0.0496276 0.0627274 0 0.0178643 0 0.0174174 0.0178643 0.0345243 0.0174174 0.0336636 0 0.0174174 0 0.0170538 0.0174174 0.0336636 0.0170538 0.0329591 0.0345243 0.0496276 0.0336636 0.0485322 0.0496276 0.0627274 0.0485322 0.0616224 0.0336636 0.0485322 0.0329591 0.0476076 0.0485322 0.0616224 0.0476076 0.0606462 0.065386 0.0756195 0.063977 0.0745685 0.0756195 0.0837358 0.0745685 0.0830232 0.063977 0.0745685 0.0627274 0.0735666 0.0745685 0.0830232 0.0735666 0.0823007 0.0837358 0.0903057 0.0830232 0.0898334 0.0903057 0.0956733 0.0898334 0.0953593 0.0830232 0.0898334 0.0823007 0.0893308 0.0898334 0.0953593 0.0893308 0.0950095 0.0627274 0.0735666 0.0616224 0.072625 0.0735666 0.0823007 0.072625 0.0815825 0.0616224 0.072625 0.0606462 0.0717484 0.072625 0.0815825 0.0717484 0.0808793 0.0823007 0.0893308 0.0815825 0.088808 0.0893308 0.0950095 0.088808 0.0946314 0.0815825 0.088808 0.0808793 0.0882743 0.088808 0.0946314 0.0882743 0.0942315 0 0.0170538 0 0.0167564 0.0170538 0.0329591 0.0167564 0.0323784 0 0.0167564 0 0.0165113 0.0167564 0.0323784 0.0165113 0.0318959 0.0329591 0.0476076 0.0323784 0.0468229 0.0476076 0.0606462 0.0468229 0.0597836 0.0323784 0.0468229 0.0318959 0.046153 0.0468229 0.0597836 0.046153 0.0590205 0 0.0165113 0 0.0163079 0.0165113 0.0318959 0.0163079 0.0314919 0 0.0163079 0 0.0161375 0.0163079 0.0314919 0.0161375 0.0311508 0.0318959 0.046153 0.0314919 0.0455781 0.046153 0.0590205 0.0455781 0.0583442 0.0314919 0.0455781 0.0311508 0.0450818 0.0455781 0.0583442 0.0450818 0.0577433 0.0606462 0.0717484 0.0597836 0.0709375 0.0717484 0.0808793 0.0709375 0.0801987 0.0597836 0.0709375 0.0590205 0.0701905 0.0709375 0.0801987 0.0701905 0.0795457 0.0808793 0.0882743 0.0801987 0.0877371 0.0882743 0.0942315 0.0877371 0.0938159 0.0801987 0.0877371 0.0795457 0.0872029 0.0877371 0.0938159 0.0872029 0.09339 0.0590205 0.0701905 0.0583442 0.0695044 0.0701905 0.0795457 0.0695044 0.0789235 0.0583442 0.0695044 0.0577433 0.0688749 0.0695044 0.0789235 0.0688749 0.0783334 0.0795457 0.0872029 0.0789235 0.0866766 0.0872029 0.09339 0.0866766 0.0929585 0.0789235 0.0866766 0.0783334 0.0861619 0.0866766 0.0929585 0.0861619 0.0925253 0.0956733 0.100056 0.0953593 0.0998415 0.100056 0.103617 0.0998415 0.103459 0.0953593 0.0998415 0.0950095 0.0995919 0.0998415 0.103459 0.0995919 0.10327 0.103617 0.106486 0.103459 0.106356 0.106486 0.108775 0.106356 0.108654 0.103459 0.106356 0.10327 0.1062 0.106356 0.108654 0.1062 0.10851 0.0950095 0.0995919 0.0946314 0.0993127 0.0995919 0.10327 0.0993127 0.103054 0.0946314 0.0993127 0.0942315 0.0990086 0.0993127 0.103054 0.0990086 0.102814 0.10327 0.1062 0.103054 0.10602 0.1062 0.10851 0.10602 0.108347 0.103054 0.10602 0.102814 0.105818 0.10602 0.108347 0.105818 0.108164 0.108775 0.110585 0.108654 0.110458 0.110585 0.112001 0.110458 0.11186 0.108654 0.110458 0.10851 0.110314 0.110458 0.11186 0.110314 0.111706 0.112001 0.113099 0.11186 0.112939 0.113099 0.113942 0.112939 0.113762 0.11186 0.112939 0.111706 0.11277 0.112939 0.113762 0.11277 0.113574 0.10851 0.110314 0.108347 0.110153 0.110314 0.111706 0.110153 0.111539 0.108347 0.110153 0.108164 0.109977 0.110153 0.111539 0.109977 0.11136 0.111706 0.11277 0.111539 0.112591 0.11277 0.113574 0.112591 0.113379 0.111539 0.112591 0.11136 0.112402 0.112591 0.113379 0.112402 0.113177 0.0942315 0.0990086 0.0938159 0.0986841 0.0990086 0.102814 0.0986841 0.102552 0.0938159 0.0986841 0.09339 0.0983435 0.0986841 0.102552 0.0983435 0.102273 0.102814 0.105818 0.102552 0.105596 0.105818 0.108164 0.105596 0.107965 0.102552 0.105596 0.102273 0.105357 0.105596 0.107965 0.105357 0.10775 0.09339 0.0983435 0.0929585 0.0979904 0.0983435 0.102273 0.0979904 0.101978 0.0929585 0.0979904 0.0925253 0.0976284 0.0979904 0.101978 0.0976284 0.101671 0.102273 0.105357 0.101978 0.105103 0.105357 0.10775 0.105103 0.10752 0.101978 0.105103 0.101671 0.104835 0.105103 0.10752 0.104835 0.107277 0.108164 0.109977 0.107965 0.109786 0.109977 0.11136 0.109786 0.111168 0.107965 0.109786 0.10775 0.109582 0.109786 0.111168 0.109582 0.110965 0.11136 0.112402 0.111168 0.112203 0.112402 0.113177 0.112203 0.112967 0.111168 0.112203 0.110965 0.111995 0.112203 0.112967 0.111995 0.11275 0.10775 0.109582 0.10752 0.109364 0.109582 0.110965 0.109364 0.110751 0.10752 0.109364 0.107277 0.109135 0.109364 0.110751 0.109135 0.110527 0.110965 0.111995 0.110751 0.111778 0.111995 0.11275 0.111778 0.112525 0.110751 0.111778 0.110527 0.111552 0.111778 0.112525 0.111552 0.112293 0.11517 0.116078 0.115032 0.115897 0.116078 0.116799 0.115897 0.116582 0.115032 0.115897 0.114891 0.115716 0.115897 0.116582 0.115716 0.116367 0.116799 0.117367 0.116582 0.11712 0.117367 0.117811 0.11712 0.117541 0.116582 0.11712 0.116367 0.116877 0.11712 0.117541 0.116877 0.117274 0.114891 0.115716 0.114747 0.115535 0.115716 0.116367 0.115535 0.116153 0.114747 0.115535 0.114598 0.115351 0.115535 0.116153 0.115351 0.115939 0.116367 0.116877 0.116153 0.116636 0.116877 0.117274 0.116636 0.11701 0.116153 0.116636 0.115939 0.116396 0.116636 0.11701 0.116396 0.116749 0.117811 0.118155 0.117541 0.117867 0.118155 0.118421 0.117867 0.118118 0.117541 0.117867 0.117274 0.117582 0.117867 0.118118 0.117582 0.117818 0.118421 0.118624 0.118118 0.11831 0.118624 0.118777 0.11831 0.118455 0.118118 0.11831 0.117818 0.117999 0.11831 0.118455 0.117999 0.118136 0.117274 0.117582 0.11701 0.117299 0.117582 0.117818 0.117299 0.117522 0.11701 0.117299 0.116749 0.11702 0.117299 0.117522 0.11702 0.117228 0.117818 0.117999 0.117522 0.117691 0.117999 0.118136 0.117691 0.11782 0.117522 0.117691 0.117228 0.117386 0.117691 0.11782 0.117386 0.117506 0.114598 0.115351 0.114443 0.115165 0.115351 0.115939 0.115165 0.115725 0.114443 0.115165 0.114282 0.114975 0.115165 0.115725 0.114975 0.115509 0.115939 0.116396 0.115725 0.116157 0.116396 0.116749 0.116157 0.116489 0.115725 0.116157 0.115509 0.115918 0.116157 0.116489 0.115918 0.11623 0.114282 0.114975 0.114116 0.114782 0.114975 0.115509 0.114782 0.115292 0.114116 0.114782 0.113942 0.114585 0.114782 0.115292 0.114585 0.115072 0.115509 0.115918 0.115292 0.115678 0.115918 0.11623 0.115678 0.115971 0.115292 0.115678 0.115072 0.115438 0.115678 0.115971 0.115438 0.115712 0.116749 0.11702 0.116489 0.116743 0.11702 0.117228 0.116743 0.116936 0.116489 0.116743 0.11623 0.116467 0.116743 0.116936 0.116467 0.116646 0.117228 0.117386 0.116936 0.117083 0.117386 0.117506 0.117083 0.117194 0.116936 0.117083 0.116646 0.116782 0.117083 0.117194 0.116782 0.116884 0.11623 0.116467 0.115971 0.116192 0.116467 0.116646 0.116192 0.116357 0.115971 0.116192 0.115712 0.115917 0.116192 0.116357 0.115917 0.11607 0.116646 0.116782 0.116357 0.116482 0.116782 0.116884 0.116482 0.116575 0.116357 0.116482 0.11607 0.116183 0.116482 0.116575 0.116183 0.116267 0.118777 0.118892 0.118455 0.118565 0.118892 0.118978 0.118565 0.118647 0.118455 0.118565 0.118136 0.11824 0.118565 0.118647 0.11824 0.118317 0.118978 0.119041 0.118647 0.118707 0.119041 0.119087 0.118707 0.118751 0.118647 0.118707 0.118317 0.118375 0.118707 0.118751 0.118375 0.118417 0.118136 0.11824 0.11782 0.117917 0.11824 0.118317 0.117917 0.11799 0.11782 0.117917 0.117506 0.117597 0.117917 0.11799 0.117597 0.117664 0.118317 0.118375 0.11799 0.118044 0.118375 0.118417 0.118044 0.118084 0.11799 0.118044 0.117664 0.117715 0.118044 0.118084 0.117715 0.117752 0.119087 0.119119 0.118751 0.118783 0.119119 0.119142 0.118783 0.118805 0.118751 0.118783 0.118417 0.118447 0.118783 0.118805 0.118447 0.118469 0.119142 0.119158 0.118805 0.11882 0.119158 0.119168 0.11882 0.118831 0.118805 0.11882 0.118469 0.118484 0.11882 0.118831 0.118484 0.118494 0.118417 0.118447 0.118084 0.118113 0.118447 0.118469 0.118113 0.118134 0.118084 0.118113 0.117752 0.117779 0.118113 0.118134 0.117779 0.117799 0.118469 0.118484 0.118134 0.118148 0.118484 0.118494 0.118148 0.118158 0.118134 0.118148 0.117799 0.117813 0.118148 0.118158 0.117813 0.117823 0.117506 0.117597 0.117194 0.117278 0.117597 0.117664 0.117278 0.11734 0.117194 0.117278 0.116884 0.116961 0.117278 0.11734 0.116961 0.117018 0.117664 0.117715 0.11734 0.117387 0.117715 0.117752 0.117387 0.117422 0.11734 0.117387 0.117018 0.117061 0.117387 0.117422 0.117061 0.117092 0.116884 0.116961 0.116575 0.116645 0.116961 0.117018 0.116645 0.116697 0.116575 0.116645 0.116267 0.11633 0.116645 0.116697 0.11633 0.116376 0.117018 0.117061 0.116697 0.116735 0.117061 0.117092 0.116735 0.116763 0.116697 0.116735 0.116376 0.11641 0.116735 0.116763 0.11641 0.116436 0.117752 0.117779 0.117422 0.117447 0.117779 0.117799 0.117447 0.117465 0.117422 0.117447 0.117092 0.117115 0.117447 0.117465 0.117115 0.117132 0.117799 0.117813 0.117465 0.117478 0.117813 0.117823 0.117478 0.117487 0.117465 0.117478 0.117132 0.117144 0.117478 0.117487 0.117144 0.117153 0.117092 0.117115 0.116763 0.116784 0.117115 0.117132 0.116784 0.1168 0.116763 0.116784 0.116436 0.116454 0.116784 0.1168 0.116454 0.116467 0.117132 0.117144 0.1168 0.11681 0.117144 0.117153 0.11681 0.116818 0.1168 0.11681 0.116467 0.116477 0.11681 0.116818 0.116477 0.116484 0.113942 0.114585 0.113762 0.114383 0.114585 0.115072 0.114383 0.114849 0.113762 0.114383 0.113574 0.114176 0.114383 0.114849 0.114176 0.114623 0.115072 0.115438 0.114849 0.115196 0.115438 0.115712 0.115196 0.115453 0.114849 0.115196 0.114623 0.114952 0.115196 0.115453 0.114952 0.115193 0.113574 0.114176 0.113379 0.113964 0.114176 0.114623 0.113964 0.114394 0.113379 0.113964 0.113177 0.113747 0.113964 0.114394 0.113747 0.11416 0.114623 0.114952 0.114394 0.114706 0.114952 0.115193 0.114706 0.114932 0.114394 0.114706 0.11416 0.114457 0.114706 0.114932 0.114457 0.114668 0.115712 0.115917 0.115453 0.115643 0.115917 0.11607 0.115643 0.115783 0.115453 0.115643 0.115193 0.115368 0.115643 0.115783 0.115368 0.115496 0.11607 0.116183 0.115783 0.115885 0.116183 0.116267 0.115885 0.115961 0.115783 0.115885 0.115496 0.115588 0.115885 0.115961 0.115588 0.115655 0.115193 0.115368 0.114932 0.115093 0.115368 0.115496 0.115093 0.115209 0.114932 0.115093 0.114668 0.114817 0.115093 0.115209 0.114817 0.114921 0.115496 0.115588 0.115209 0.115291 0.115588 0.115655 0.115291 0.115349 0.115209 0.115291 0.114921 0.114993 0.115291 0.115349 0.114993 0.115043 0.113177 0.113747 0.112967 0.113523 0.113747 0.11416 0.113523 0.113923 0.112967 0.113523 0.11275 0.113294 0.113523 0.113923 0.113294 0.113681 0.11416 0.114457 0.113923 0.114206 0.114457 0.114668 0.114206 0.114403 0.113923 0.114206 0.113681 0.113951 0.114206 0.114403 0.113951 0.114136 0.11275 0.113294 0.112525 0.113059 0.113294 0.113681 0.113059 0.113435 0.112525 0.113059 0.112293 0.112819 0.113059 0.113435 0.112819 0.113183 0.113681 0.113951 0.113435 0.113693 0.113951 0.114136 0.113693 0.113866 0.113435 0.113693 0.113183 0.113431 0.113693 0.113866 0.113431 0.113594 0.114668 0.114817 0.114403 0.11454 0.114817 0.114921 0.11454 0.114633 0.114403 0.11454 0.114136 0.114261 0.11454 0.114633 0.114261 0.114344 0.114921 0.114993 0.114633 0.114696 0.114993 0.115043 0.114696 0.114738 0.114633 0.114696 0.114344 0.114397 0.114696 0.114738 0.114397 0.114432 0.114136 0.114261 0.113866 0.11398 0.114261 0.114344 0.11398 0.114053 0.113866 0.11398 0.113594 0.113698 0.11398 0.114053 0.113698 0.113761 0.114344 0.114397 0.114053 0.114098 0.114397 0.114432 0.114098 0.114125 0.114053 0.114098 0.113761 0.113798 0.114098 0.114125 0.113798 0.113818 0.116267 0.11633 0.115961 0.116016 0.11633 0.116376 0.116016 0.116057 0.115961 0.116016 0.115655 0.115703 0.116016 0.116057 0.115703 0.115738 0.116376 0.11641 0.116057 0.116087 0.11641 0.116436 0.116087 0.116108 0.116057 0.116087 0.115738 0.115763 0.116087 0.116108 0.115763 0.115782 0.115655 0.115703 0.115349 0.11539 0.115703 0.115738 0.11539 0.11542 0.115349 0.11539 0.115043 0.115078 0.11539 0.11542 0.115078 0.115102 0.115738 0.115763 0.11542 0.115441 0.115763 0.115782 0.115441 0.115456 0.11542 0.115441 0.115102 0.115118 0.115441 0.115456 0.115118 0.11513 0.116436 0.116454 0.116108 0.116124 0.116454 0.116467 0.116124 0.116136 0.116108 0.116124 0.115782 0.115795 0.116124 0.116136 0.115795 0.115805 0.116467 0.116477 0.116136 0.116144 0.116477 0.116484 0.116144 0.11615 0.116136 0.116144 0.115805 0.115812 0.116144 0.11615 0.115812 0.115817 0.115782 0.115795 0.115456 0.115466 0.115795 0.115805 0.115466 0.115474 0.115456 0.115466 0.11513 0.115138 0.115466 0.115474 0.115138 0.115143 0.115805 0.115812 0.115474 0.115479 0.115812 0.115817 0.115479 0.115483 0.115474 0.115479 0.115143 0.115147 0.115479 0.115483 0.115147 0.11515 0.115043 0.115078 0.114738 0.114766 0.115078 0.115102 0.114766 0.114784 0.114738 0.114766 0.114432 0.114453 0.114766 0.114784 0.114453 0.114466 0.115102 0.115118 0.114784 0.114796 0.115118 0.11513 0.114796 0.114804 0.114784 0.114796 0.114466 0.114474 0.114796 0.114804 0.114474 0.114479 0.114432 0.114453 0.114125 0.11414 0.114453 0.114466 0.11414 0.114148 0.114125 0.11414 0.113818 0.113827 0.11414 0.114148 0.113827 0.11383 0.114466 0.114474 0.114148 0.114152 0.114474 0.114479 0.114152 0.114153 0.114148 0.114152 0.11383 0.11383 0.114152 0.114153 0.11383 0.113828 0.11513 0.115138 0.114804 0.11481 0.115138 0.115143 0.11481 0.114813 0.114804 0.11481 0.114479 0.114481 0.11481 0.114813 0.114481 0.114483 0.115143 0.115147 0.114813 0.114816 0.115147 0.11515 0.114816 0.114817 0.114813 0.114816 0.114483 0.114484 0.114816 0.114817 0.114484 0.114484 0.114479 0.114481 0.114153 0.114153 0.114481 0.114483 0.114153 0.114153 0.114153 0.114153 0.113828 0.113825 0.114153 0.114153 0.113825 0.113823 0.114483 0.114484 0.114153 0.114152 0.114484 0.114484 0.114152 0.114152 0.114153 0.114152 0.113823 0.113821 0.114152 0.114152 0.113821 0.113819 0 0.0161375 0 0.0159935 0.0161375 0.0311508 0.0159935 0.0308604 0 0.0159935 0 0.0158708 0.0159935 0.0308604 0.0158708 0.0306111 0.0311508 0.0450818 0.0308604 0.0446507 0.0450818 0.0577433 0.0446507 0.057208 0.0308604 0.0446507 0.0306111 0.0442741 0.0446507 0.057208 0.0442741 0.0567295 0 0.0158708 0 0.015765 0.0158708 0.0306111 0.015765 0.030395 0 0.015765 0 0.015673 0.015765 0.030395 0.015673 0.0302062 0.0306111 0.0442741 0.030395 0.0439429 0.0442741 0.0567295 0.0439429 0.0563004 0.030395 0.0439429 0.0302062 0.0436499 0.0439429 0.0563004 0.0436499 0.0559141 0.0577433 0.0688749 0.057208 0.0682977 0.0688749 0.0783334 0.0682977 0.077776 0.057208 0.0682977 0.0567295 0.0677684 0.0682977 0.077776 0.0677684 0.0772507 0.0783334 0.0861619 0.077776 0.0856618 0.0861619 0.0925253 0.0856618 0.0920937 0.077776 0.0856618 0.0772507 0.085178 0.0856618 0.0920937 0.085178 0.0916666 0.0567295 0.0677684 0.0563004 0.0672826 0.0677684 0.0772507 0.0672826 0.0767567 0.0563004 0.0672826 0.0559141 0.0668363 0.0672826 0.0767567 0.0668363 0.0762926 0.0772507 0.085178 0.0767567 0.084712 0.085178 0.0916666 0.084712 0.091246 0.0767567 0.084712 0.0762926 0.0842642 0.084712 0.091246 0.0842642 0.0908336 0 0.015673 0 0.0155922 0.015673 0.0302062 0.0155922 0.0300396 0 0.0155922 0 0.0155204 0.0155922 0.0300396 0.0155204 0.0298915 0.0302062 0.0436499 0.0300396 0.0433889 0.0436499 0.0559141 0.0433889 0.055565 0.030