# vtk DataFile Version 3.0
#This file was generated by the deal.II library on 2022/1/6 at 22:33:38
ASCII
DATASET UNSTRUCTURED_GRID

POINTS 16384 double
0 0 0
0.1875 0 0
0 0.046875 0
0.1875 0.046875 0
0.1875 0 0
0.375 0 0
0.1875 0.046875 0
0.375 0.046875 0
0 0.046875 0
0.1875 0.046875 0
0 0.09375 0
0.1875 0.09375 0
0.1875 0.046875 0
0.375 0.046875 0
0.1875 0.09375 0
0.375 0.09375 0
0.375 0 0
0.5625 0 0
0.375 0.046875 0
0.5625 0.046875 0
0.5625 0 0
0.75 0 0
0.5625 0.046875 0
0.75 0.046875 0
0.375 0.046875 0
0.5625 0.046875 0
0.375 0.09375 0
0.5625 0.09375 0
0.5625 0.046875 0
0.75 0.046875 0
0.5625 0.09375 0
0.75 0.09375 0
0 0.09375 0
0.1875 0.09375 0
0 0.140625 0
0.1875 0.140625 0
0.1875 0.09375 0
0.375 0.09375 0
0.1875 0.140625 0
0.375 0.140625 0
0 0.140625 0
0.1875 0.140625 0
0 0.1875 0
0.1875 0.1875 0
0.1875 0.140625 0
0.375 0.140625 0
0.1875 0.1875 0
0.375 0.1875 0
0.375 0.09375 0
0.5625 0.09375 0
0.375 0.140625 0
0.5625 0.140625 0
0.5625 0.09375 0
0.75 0.09375 0
0.5625 0.140625 0
0.75 0.140625 0
0.375 0.140625 0
0.5625 0.140625 0
0.375 0.1875 0
0.5625 0.1875 0
0.5625 0.140625 0
0.75 0.140625 0
0.5625 0.1875 0
0.75 0.1875 0
0.75 0 0
0.9375 0 0
0.75 0.046875 0
0.9375 0.046875 0
0.9375 0 0
1.125 0 0
0.9375 0.046875 0
1.125 0.046875 0
0.75 0.046875 0
0.9375 0.046875 0
0.75 0.09375 0
0.9375 0.09375 0
0.9375 0.046875 0
1.125 0.046875 0
0.9375 0.09375 0
1.125 0.09375 0
1.125 0 0
1.3125 0 0
1.125 0.046875 0
1.3125 0.046875 0
1.3125 0 0
1.5 0 0
1.3125 0.046875 0
1.5 0.046875 0
1.125 0.046875 0
1.3125 0.046875 0
1.125 0.09375 0
1.3125 0.09375 0
1.3125 0.046875 0
1.5 0.046875 0
1.3125 0.09375 0
1.5 0.09375 0
0.75 0.09375 0
0.9375 0.09375 0
0.75 0.140625 0
0.9375 0.140625 0
0.9375 0.09375 0
1.125 0.09375 0
0.9375 0.140625 0
1.125 0.140625 0
0.75 0.140625 0
0.9375 0.140625 0
0.75 0.1875 0
0.9375 0.1875 0
0.9375 0.140625 0
1.125 0.140625 0
0.9375 0.1875 0
1.125 0.1875 0
1.125 0.09375 0
1.3125 0.09375 0
1.125 0.140625 0
1.3125 0.140625 0
1.3125 0.09375 0
1.5 0.09375 0
1.3125 0.140625 0
1.5 0.140625 0
1.125 0.140625 0
1.3125 0.140625 0
1.125 0.1875 0
1.3125 0.1875 0
1.3125 0.140625 0
1.5 0.140625 0
1.3125 0.1875 0
1.5 0.1875 0
0 0.1875 0
0.1875 0.1875 0
0 0.234375 0
0.1875 0.234375 0
0.1875 0.1875 0
0.375 0.1875 0
0.1875 0.234375 0
0.375 0.234375 0
0 0.234375 0
0.1875 0.234375 0
0 0.28125 0
0.1875 0.28125 0
0.1875 0.234375 0
0.375 0.234375 0
0.1875 0.28125 0
0.375 0.28125 0
0.375 0.1875 0
0.5625 0.1875 0
0.375 0.234375 0
0.5625 0.234375 0
0.5625 0.1875 0
0.75 0.1875 0
0.5625 0.234375 0
0.75 0.234375 0
0.375 0.234375 0
0.5625 0.234375 0
0.375 0.28125 0
0.5625 0.28125 0
0.5625 0.234375 0
0.75 0.234375 0
0.5625 0.28125 0
0.75 0.28125 0
0 0.28125 0
0.1875 0.28125 0
0 0.328125 0
0.1875 0.328125 0
0.1875 0.28125 0
0.375 0.28125 0
0.1875 0.328125 0
0.375 0.328125 0
0 0.328125 0
0.1875 0.328125 0
0 0.375 0
0.1875 0.375 0
0.1875 0.328125 0
0.375 0.328125 0
0.1875 0.375 0
0.375 0.375 0
0.375 0.28125 0
0.5625 0.28125 0
0.375 0.328125 0
0.5625 0.328125 0
0.5625 0.28125 0
0.75 0.28125 0
0.5625 0.328125 0
0.75 0.328125 0
0.375 0.328125 0
0.5625 0.328125 0
0.375 0.375 0
0.5625 0.375 0
0.5625 0.328125 0
0.75 0.328125 0
0.5625 0.375 0
0.75 0.375 0
0.75 0.1875 0
0.9375 0.1875 0
0.75 0.234375 0
0.9375 0.234375 0
0.9375 0.1875 0
1.125 0.1875 0
0.9375 0.234375 0
1.125 0.234375 0
0.75 0.234375 0
0.9375 0.234375 0
0.75 0.28125 0
0.9375 0.28125 0
0.9375 0.234375 0
1.125 0.234375 0
0.9375 0.28125 0
1.125 0.28125 0
1.125 0.1875 0
1.3125 0.1875 0
1.125 0.234375 0
1.3125 0.234375 0
1.3125 0.1875 0
1.5 0.1875 0
1.3125 0.234375 0
1.5 0.234375 0
1.125 0.234375 0
1.3125 0.234375 0
1.125 0.28125 0
1.3125 0.28125 0
1.3125 0.234375 0
1.5 0.234375 0
1.3125 0.28125 0
1.5 0.28125 0
0.75 0.28125 0
0.9375 0.28125 0
0.75 0.328125 0
0.9375 0.328125 0
0.9375 0.28125 0
1.125 0.28125 0
0.9375 0.328125 0
1.125 0.328125 0
0.75 0.328125 0
0.9375 0.328125 0
0.75 0.375 0
0.9375 0.375 0
0.9375 0.328125 0
1.125 0.328125 0
0.9375 0.375 0
1.125 0.375 0
1.125 0.28125 0
1.3125 0.28125 0
1.125 0.328125 0
1.3125 0.328125 0
1.3125 0.28125 0
1.5 0.28125 0
1.3125 0.328125 0
1.5 0.328125 0
1.125 0.328125 0
1.3125 0.328125 0
1.125 0.375 0
1.3125 0.375 0
1.3125 0.328125 0
1.5 0.328125 0
1.3125 0.375 0
1.5 0.375 0
1.5 0 0
1.6875 0 0
1.5 0.046875 0
1.6875 0.046875 0
1.6875 0 0
1.875 0 0
1.6875 0.046875 0
1.875 0.046875 0
1.5 0.046875 0
1.6875 0.046875 0
1.5 0.09375 0
1.6875 0.09375 0
1.6875 0.046875 0
1.875 0.046875 0
1.6875 0.09375 0
1.875 0.09375 0
1.875 0 0
2.0625 0 0
1.875 0.046875 0
2.0625 0.046875 0
2.0625 0 0
2.25 0 0
2.0625 0.046875 0
2.25 0.046875 0
1.875 0.046875 0
2.0625 0.046875 0
1.875 0.09375 0
2.0625 0.09375 0
2.0625 0.046875 0
2.25 0.046875 0
2.0625 0.09375 0
2.25 0.09375 0
1.5 0.09375 0
1.6875 0.09375 0
1.5 0.140625 0
1.6875 0.140625 0
1.6875 0.09375 0
1.875 0.09375 0
1.6875 0.140625 0
1.875 0.140625 0
1.5 0.140625 0
1.6875 0.140625 0
1.5 0.1875 0
1.6875 0.1875 0
1.6875 0.140625 0
1.875 0.140625 0
1.6875 0.1875 0
1.875 0.1875 0
1.875 0.09375 0
2.0625 0.09375 0
1.875 0.140625 0
2.0625 0.140625 0
2.0625 0.09375 0
2.25 0.09375 0
2.0625 0.140625 0
2.25 0.140625 0
1.875 0.140625 0
2.0625 0.140625 0
1.875 0.1875 0
2.0625 0.1875 0
2.0625 0.140625 0
2.25 0.140625 0
2.0625 0.1875 0
2.25 0.1875 0
2.25 0 0
2.4375 0 0
2.25 0.046875 0
2.4375 0.046875 0
2.4375 0 0
2.625 0 0
2.4375 0.046875 0
2.625 0.046875 0
2.25 0.046875 0
2.4375 0.046875 0
2.25 0.09375 0
2.4375 0.09375 0
2.4375 0.046875 0
2.625 0.046875 0
2.4375 0.09375 0
2.625 0.09375 0
2.625 0 0
2.8125 0 0
2.625 0.046875 0
2.8125 0.046875 0
2.8125 0 0
3 0 0
2.8125 0.046875 0
3 0.046875 0
2.625 0.046875 0
2.8125 0.046875 0
2.625 0.09375 0
2.8125 0.09375 0
2.8125 0.046875 0
3 0.046875 0
2.8125 0.09375 0
3 0.09375 0
2.25 0.09375 0
2.4375 0.09375 0
2.25 0.140625 0
2.4375 0.140625 0
2.4375 0.09375 0
2.625 0.09375 0
2.4375 0.140625 0
2.625 0.140625 0
2.25 0.140625 0
2.4375 0.140625 0
2.25 0.1875 0
2.4375 0.1875 0
2.4375 0.140625 0
2.625 0.140625 0
2.4375 0.1875 0
2.625 0.1875 0
2.625 0.09375 0
2.8125 0.09375 0
2.625 0.140625 0
2.8125 0.140625 0
2.8125 0.09375 0
3 0.09375 0
2.8125 0.140625 0
3 0.140625 0
2.625 0.140625 0
2.8125 0.140625 0
2.625 0.1875 0
2.8125 0.1875 0
2.8125 0.140625 0
3 0.140625 0
2.8125 0.1875 0
3 0.1875 0
1.5 0.1875 0
1.6875 0.1875 0
1.5 0.234375 0
1.6875 0.234375 0
1.6875 0.1875 0
1.875 0.1875 0
1.6875 0.234375 0
1.875 0.234375 0
1.5 0.234375 0
1.6875 0.234375 0
1.5 0.28125 0
1.6875 0.28125 0
1.6875 0.234375 0
1.875 0.234375 0
1.6875 0.28125 0
1.875 0.28125 0
1.875 0.1875 0
2.0625 0.1875 0
1.875 0.234375 0
2.0625 0.234375 0
2.0625 0.1875 0
2.25 0.1875 0
2.0625 0.234375 0
2.25 0.234375 0
1.875 0.234375 0
2.0625 0.234375 0
1.875 0.28125 0
2.0625 0.28125 0
2.0625 0.234375 0
2.25 0.234375 0
2.0625 0.28125 0
2.25 0.28125 0
1.5 0.28125 0
1.6875 0.28125 0
1.5 0.328125 0
1.6875 0.328125 0
1.6875 0.28125 0
1.875 0.28125 0
1.6875 0.328125 0
1.875 0.328125 0
1.5 0.328125 0
1.6875 0.328125 0
1.5 0.375 0
1.6875 0.375 0
1.6875 0.328125 0
1.875 0.328125 0
1.6875 0.375 0
1.875 0.375 0
1.875 0.28125 0
2.0625 0.28125 0
1.875 0.328125 0
2.0625 0.328125 0
2.0625 0.28125 0
2.25 0.28125 0
2.0625 0.328125 0
2.25 0.328125 0
1.875 0.328125 0
2.0625 0.328125 0
1.875 0.375 0
2.0625 0.375 0
2.0625 0.328125 0
2.25 0.328125 0
2.0625 0.375 0
2.25 0.375 0
2.25 0.1875 0
2.4375 0.1875 0
2.25 0.234375 0
2.4375 0.234375 0
2.4375 0.1875 0
2.625 0.1875 0
2.4375 0.234375 0
2.625 0.234375 0
2.25 0.234375 0
2.4375 0.234375 0
2.25 0.28125 0
2.4375 0.28125 0
2.4375 0.234375 0
2.625 0.234375 0
2.4375 0.28125 0
2.625 0.28125 0
2.625 0.1875 0
2.8125 0.1875 0
2.625 0.234375 0
2.8125 0.234375 0
2.8125 0.1875 0
3 0.1875 0
2.8125 0.234375 0
3 0.234375 0
2.625 0.234375 0
2.8125 0.234375 0
2.625 0.28125 0
2.8125 0.28125 0
2.8125 0.234375 0
3 0.234375 0
2.8125 0.28125 0
3 0.28125 0
2.25 0.28125 0
2.4375 0.28125 0
2.25 0.328125 0
2.4375 0.328125 0
2.4375 0.28125 0
2.625 0.28125 0
2.4375 0.328125 0
2.625 0.328125 0
2.25 0.328125 0
2.4375 0.328125 0
2.25 0.375 0
2.4375 0.375 0
2.4375 0.328125 0
2.625 0.328125 0
2.4375 0.375 0
2.625 0.375 0
2.625 0.28125 0
2.8125 0.28125 0
2.625 0.328125 0
2.8125 0.328125 0
2.8125 0.28125 0
3 0.28125 0
2.8125 0.328125 0
3 0.328125 0
2.625 0.328125 0
2.8125 0.328125 0
2.625 0.375 0
2.8125 0.375 0
2.8125 0.328125 0
3 0.328125 0
2.8125 0.375 0
3 0.375 0
0 0.375 0
0.1875 0.375 0
0 0.421875 0
0.1875 0.421875 0
0.1875 0.375 0
0.375 0.375 0
0.1875 0.421875 0
0.375 0.421875 0
0 0.421875 0
0.1875 0.421875 0
0 0.46875 0
0.1875 0.46875 0
0.1875 0.421875 0
0.375 0.421875 0
0.1875 0.46875 0
0.375 0.46875 0
0.375 0.375 0
0.5625 0.375 0
0.375 0.421875 0
0.5625 0.421875 0
0.5625 0.375 0
0.75 0.375 0
0.5625 0.421875 0
0.75 0.421875 0
0.375 0.421875 0
0.5625 0.421875 0
0.375 0.46875 0
0.5625 0.46875 0
0.5625 0.421875 0
0.75 0.421875 0
0.5625 0.46875 0
0.75 0.46875 0
0 0.46875 0
0.1875 0.46875 0
0 0.515625 0
0.1875 0.515625 0
0.1875 0.46875 0
0.375 0.46875 0
0.1875 0.515625 0
0.375 0.515625 0
0 0.515625 0
0.1875 0.515625 0
0 0.5625 0
0.1875 0.5625 0
0.1875 0.515625 0
0.375 0.515625 0
0.1875 0.5625 0
0.375 0.5625 0
0.375 0.46875 0
0.5625 0.46875 0
0.375 0.515625 0
0.5625 0.515625 0
0.5625 0.46875 0
0.75 0.46875 0
0.5625 0.515625 0
0.75 0.515625 0
0.375 0.515625 0
0.5625 0.515625 0
0.375 0.5625 0
0.5625 0.5625 0
0.5625 0.515625 0
0.75 0.515625 0
0.5625 0.5625 0
0.75 0.5625 0
0.75 0.375 0
0.9375 0.375 0
0.75 0.421875 0
0.9375 0.421875 0
0.9375 0.375 0
1.125 0.375 0
0.9375 0.421875 0
1.125 0.421875 0
0.75 0.421875 0
0.9375 0.421875 0
0.75 0.46875 0
0.9375 0.46875 0
0.9375 0.421875 0
1.125 0.421875 0
0.9375 0.46875 0
1.125 0.46875 0
1.125 0.375 0
1.3125 0.375 0
1.125 0.421875 0
1.3125 0.421875 0
1.3125 0.375 0
1.5 0.375 0
1.3125 0.421875 0
1.5 0.421875 0
1.125 0.421875 0
1.3125 0.421875 0
1.125 0.46875 0
1.3125 0.46875 0
1.3125 0.421875 0
1.5 0.421875 0
1.3125 0.46875 0
1.5 0.46875 0
0.75 0.46875 0
0.9375 0.46875 0
0.75 0.515625 0
0.9375 0.515625 0
0.9375 0.46875 0
1.125 0.46875 0
0.9375 0.515625 0
1.125 0.515625 0
0.75 0.515625 0
0.9375 0.515625 0
[...]
POINT_DATA 16384
SCALARS x_displacement double 1
LOOKUP_TABLE default
0 0.0213402 0 0.020247 0.0213402 0.0340337 0.020247 0.0336571 0 0.020247 0 0.0191999 0.020247 0.0336571 0.0191999 0.0320901 0.0340337 0.0383683 0.0336571 0.0376715 0.0383683 0.0341063 0.0376715 0.0334792 0.0336571 0.0376715 0.0320901 0.0362869 0.0376715 0.0334792 0.0362869 0.0324592 0 0.0191999 0 0.0180453 0.0191999 0.0320901 0.0180453 0.029494 0 0.0180453 0 0.0169085 0.0180453 0.029494 0.0169085 0.0266199 0.0320901 0.0362869 0.029494 0.0341033 0.0362869 0.0324592 0.0341033 0.0310628 0.029494 0.0341033 0.0266199 0.0309377 0.0341033 0.0310628 0.0309377 0.0294096 0.0341063 0.0304666 0.0334792 0.0300244 0.0304666 0.0282994 0.0300244 0.0280184 0.0334792 0.0300244 0.0324592 0.0294075 0.0300244 0.0280184 0.0294075 0.027621 0.0282994 0.0270631 0.0280184 0.0268135 0.0270631 0.0263287 0.0268135 0.0260812 0.0280184 0.0268135 0.027621 0.0264992 0.0268135 0.0260812 0.0264992 0.025794 0.0324592 0.0294075 0.0310628 0.0286442 0.0294075 0.027621 0.0286442 0.0271262 0.0310628 0.0286442 0.0294096 0.0277689 0.0286442 0.0271262 0.0277689 0.0265475 0.027621 0.0264992 0.0271262 0.0261233 0.0264992 0.025794 0.0261233 0.0254695 0.0271262 0.0261233 0.0265475 0.0256934 0.0261233 0.0254695 0.0256934 0.0251098 0 0.0169085 0 0.0158482 0.0169085 0.0266199 0.0158482 0.0238014 0 0.0158482 0 0.0148457 0.0158482 0.0238014 0.0148457 0.021547 0.0266199 0.0309377 0.0238014 0.0276519 0.0309377 0.0294096 0.0276519 0.0277224 0.0238014 0.0276519 0.021547 0.0250461 0.0276519 0.0277224 0.0250461 0.0260259 0 0.0148457 0 0.0139646 0.0148457 0.021547 0.0139646 0.0197437 0 0.0139646 0 0.0132182 0.0139646 0.0197437 0.0132182 0.0182945 0.021547 0.0250461 0.0197437 0.0229797 0.0250461 0.0260259 0.0229797 0.0244396 0.0197437 0.0229797 0.0182945 0.0212973 0.0229797 0.0244396 0.0212973 0.0230079 0.0294096 0.0277689 0.0277224 0.0267946 0.0277689 0.0265475 0.0267946 0.0259047 0.0277224 0.0267946 0.0260259 0.0257699 0.0267946 0.0259047 0.0257699 0.0252119 0.0265475 0.0256934 0.0259047 0.0252167 0.0256934 0.0251098 0.0252167 0.0247185 0.0259047 0.0252167 0.0252119 0.0247019 0.0252167 0.0247185 0.0247019 0.0242994 0.0260259 0.0257699 0.0244396 0.0247208 0.0257699 0.0252119 0.0247208 0.0244871 0.0244396 0.0247208 0.0230079 0.0236826 0.0247208 0.0244871 0.0236826 0.0237438 0.0252119 0.0247019 0.0244871 0.0241568 0.0247019 0.0242994 0.0241568 0.0238571 0.0244871 0.0241568 0.0237438 0.0235902 0.0241568 0.0238571 0.0235902 0.0233959 0.0263287 0.0258884 0.0260812 0.0256331 0.0258884 0.0256286 0.0256331 0.025362 0.0260812 0.0256331 0.025794 0.025353 0.0256331 0.025362 0.025353 0.0250796 0.0256286 0.0254812 0.025362 0.025203 0.0254812 0.0254042 0.025203 0.0251153 0.025362 0.025203 0.0250796 0.0249148 0.025203 0.0251153 0.0249148 0.0248201 0.025794 0.025353 0.0254695 0.0250487 0.025353 0.0250796 0.0250487 0.0247817 0.0254695 0.0250487 0.0251098 0.0247216 0.0250487 0.0247817 0.0247216 0.0244688 0.0250796 0.0249148 0.0247817 0.0246165 0.0249148 0.0248201 0.0246165 0.0245184 0.0247817 0.0246165 0.0244688 0.0243083 0.0246165 0.0245184 0.0243083 0.0242102 0.0254042 0.025371 0.0251153 0.0250727 0.025371 0.0253641 0.0250727 0.0250579 0.0251153 0.0250727 0.0248201 0.0247705 0.0250727 0.0250579 0.0247705 0.0247493 0.0253641 0.0253725 0.0250579 0.0250597 0.0253725 0.0253888 0.0250597 0.0250706 0.0250579 0.0250597 0.0247493 0.0247455 0.0250597 0.0250706 0.0247455 0.0247518 0.0248201 0.0247705 0.0245184 0.0244642 0.0247705 0.0247493 0.0244642 0.0244382 0.0245184 0.0244642 0.0242102 0.0241538 0.0244642 0.0244382 0.0241538 0.0241246 0.0247493 0.0247455 0.0244382 0.02443 0.0247455 0.0247518 0.02443 0.0244323 0.0244382 0.02443 0.0241246 0.0241129 0.02443 0.0244323 0.0241129 0.0241119 0.0251098 0.0247216 0.0247185 0.0243733 0.0247216 0.0244688 0.0243733 0.0241416 0.0247185 0.0243733 0.0242994 0.0240057 0.0243733 0.0241416 0.0240057 0.0238011 0.0244688 0.0243083 0.0241416 0.0239906 0.0243083 0.0242102 0.0239906 0.0238957 0.0241416 0.0239906 0.0238011 0.0236638 0.0239906 0.0238957 0.0236638 0.0235751 0.0242994 0.0240057 0.0238571 0.023621 0.0240057 0.0238011 0.023621 0.0234485 0.0238571 0.023621 0.0233959 0.0232218 0.023621 0.0234485 0.0232218 0.0230851 0.0238011 0.0236638 0.0234485 0.0233285 0.0236638 0.0235751 0.0233285 0.0232485 0.0234485 0.0233285 0.0230851 0.0229854 0.0233285 0.0232485 0.0229854 0.0229165 0.0242102 0.0241538 0.0238957 0.0238392 0.0241538 0.0241246 0.0238392 0.0238083 0.0238957 0.0238392 0.0235751 0.0235205 0.0238392 0.0238083 0.0235205 0.0234893 0.0241246 0.0241129 0.0238083 0.0237941 0.0241129 0.0241119 0.0237941 0.0237905 0.0238083 0.0237941 0.0234893 0.0234737 0.0237941 0.0237905 0.0234737 0.0234682 0.0235751 0.0235205 0.0232485 0.0231978 0.0235205 0.0234893 0.0231978 0.0231676 0.0232485 0.0231978 0.0229165 0.0228713 0.0231978 0.0231676 0.0228713 0.0228434 0.0234893 0.0234737 0.0231676 0.0231515 0.0234737 0.0234682 0.0231515 0.0231447 0.0231676 0.0231515 0.0228434 0.0228277 0.0231515 0.0231447 0.0228277 0.0228202 0 0.0132182 0 0.0125974 0.0132182 0.0182945 0.0125974 0.0171221 0 0.0125974 0 0.0120849 0.0125974 0.0171221 0.0120849 0.016167 0.0182945 0.0212973 0.0171221 0.0199064 0.0212973 0.0230079 0.0199064 0.0217332 0.0171221 0.0199064 0.016167 0.0187443 0.0199064 0.0217332 0.0187443 0.0206047 0 0.0120849 0 0.0116623 0.0120849 0.016167 0.0116623 0.0153832 0 0.0116623 0 0.0113128 0.0116623 0.0153832 0.0113128 0.0147355 0.016167 0.0187443 0.0153832 0.0177657 0.0187443 0.0206047 0.0177657 0.0196078 0.0153832 0.0177657 0.0147355 0.0169361 0.0177657 0.0196078 0.0169361 0.0187271 0.0230079 0.0236826 0.0217332 0.0226827 0.0236826 0.0237438 0.0226827 0.0229957 0.0217332 0.0226827 0.0206047 0.0217377 0.0226827 0.0229957 0.0217377 0.0222556 0.0237438 0.0235902 0.0229957 0.0230098 0.0235902 0.0233959 0.0230098 0.0229203 0.0229957 0.0230098 0.0222556 0.022423 0.0230098 0.0229203 0.022423 0.0224347 0.0206047 0.0217377 0.0196078 0.0208555 0.0217377 0.0222556 0.0208555 0.0215335 0.0196078 0.0208555 0.0187271 0.0200386 0.0208555 0.0215335 0.0200386 0.0208369 0.0222556 0.022423 0.0215335 0.021836 0.022423 0.0224347 0.021836 0.0219433 0.0215335 0.021836 0.0208369 0.0212549 0.021836 0.0219433 0.0212549 0.0214499 0 0.0113128 0 0.0110223 0.0113128 0.0147355 0.0110223 0.0141962 0 0.0110223 0 0.0107792 0.0110223 0.0141962 0.0107792 0.0137437 0.0147355 0.0169361 0.0141962 0.0162285 0.0169361 0.0187271 0.0162285 0.0179486 0.0141962 0.0162285 0.0137437 0.0156214 0.0162285 0.0179486 0.0156214 0.0172591 0 0.0107792 0 0.0105742 0.0107792 0.0137437 0.0105742 0.013361 0 0.0105742 0 0.0104 0.0105742 0.013361 0.0104 0.0130347 0.0137437 0.0156214 0.013361 0.0150975 0.0156214 0.0172591 0.0150975 0.0166471 0.013361 0.0150975 0.0130347 0.0146426 0.0150975 0.0166471 0.0146426 0.0161024 0.0187271 0.0200386 0.0179486 0.0192862 0.0200386 0.0208369 0.0192862 0.0201708 0.0179486 0.0192862 0.0172591 0.0185955 0.0192862 0.0201708 0.0185955 0.0195379 0.0208369 0.0212549 0.0201708 0.0206842 0.0212549 0.0214499 0.0206842 0.0209578 0.0201708 0.0206842 0.0195379 0.0201278 0.0206842 0.0209578 0.0201278 0.02047 0.0172591 0.0185955 0.0166471 0.0179626 0.0185955 0.0195379 0.0179626 0.0189397 0.0166471 0.0179626 0.0161024 0.017383 0.0179626 0.0189397 0.017383 0.0183761 0.0195379 0.0201278 0.0189397 0.0195885 0.0201278 0.02047 0.0195885 0.0199891 0.0189397 0.0195885 0.0183761 0.0190682 0.0195885 0.0199891 0.0190682 0.0195172 0.0233959 0.0232218 0.0229203 0.0228104 0.0232218 0.0230851 0.0228104 0.0227123 0.0229203 0.0228104 0.0224347 0.0223895 0.0228104 0.0227123 0.0223895 0.0223317 0.0230851 0.0229854 0.0227123 0.0226354 0.0229854 0.0229165 0.0226354 0.0225795 0.0227123 0.0226354 0.0223317 0.0222793 0.0226354 0.0225795 0.0222793 0.0222379 0.0224347 0.0223895 0.0219433 0.0219616 0.0223895 0.0223317 0.0219616 0.0219446 0.0219433 0.0219616 0.0214499 0.0215291 0.0219616 0.0219446 0.0215291 0.0215528 0.0223317 0.0222793 0.0219446 0.0219179 0.0222793 0.0222379 0.0219179 0.0218923 0.0219446 0.0219179 0.0215528 0.0215523 0.0219179 0.0218923 0.0215523 0.0215431 0.0229165 0.0228713 0.0225795 0.0225413 0.0228713 0.0228434 0.0225413 0.0225167 0.0225795 0.0225413 0.0222379 0.0222079 0.0225413 0.0225167 0.0222079 0.0221876 0.0228434 0.0228277 0.0225167 0.0225021 0.0228277 0.0228202 0.0225021 0.0224945 0.0225167 0.0225021 0.0221876 0.0221749 0.0225021 0.0224945 0.0221749 0.0221678 0.0222379 0.0222079 0.0218923 0.0218715 0.0222079 0.0221876 0.0218715 0.0218563 0.0218923 0.0218715 0.0215431 0.0215324 0.0218715 0.0218563 0.0215324 0.0215231 0.0221876 0.0221749 0.0218563 0.0218462 0.0221749 0.0221678 0.0218462 0.02184 0.0218563 0.0218462 0.0215231 0.021516 0.0218462 0.02184 0.021516 0.0215111 0.0214499 0.0215291 0.0209578 0.0210943 0.0215291 0.0215528 0.0210943 0.0211575 0.0209578 0.0210943 0.02047 0.0206593 0.0210943 0.0211575 0.0206593 0.0207603 0.0215528 0.0215523 0.0211575 0.0211833 0.0215523 0.0215431 0.0211833 0.0211911 0.0211575 0.0211833 0.0207603 0.0208119 0.0211833 0.0211911 0.0208119 0.0208368 0.02047 0.0206593 0.0199891 0.0202261 0.0206593 0.0207603 0.0202261 0.0203624 0.0199891 0.0202261 0.0195172 0.0197962 0.0202261 0.0203624 0.0197962 0.0199651 0.0207603 0.0208119 0.0203624 0.020439 0.0208119 0.0208368 0.020439 0.0204808 0.0203624 0.020439 0.0199651 0.0200653 0.020439 0.0204808 0.0200653 0.0201235 0.0215431 0.0215324 0.0211911 0.021191 0.0215324 0.0215231 0.021191 0.021188 0.0211911 0.021191 0.0208368 0.0208476 0.021191 0.021188 0.0208476 0.0208513 0.0215231 0.021516 0.021188 0.0211844 0.021516 0.0215111 0.0211844 0.0211813 0.021188 0.0211844 0.0208513 0.0208516 0.0211844 0.0211813 0.0208516 0.0208505 0.0208368 0.0208476 0.0204808 0.0205026 0.0208476 0.0208513 0.0205026 0.0205133 0.0204808 0.0205026 0.0201235 0.0201564 0.0205026 0.0205133 0.0201564 0.0201741 0.0208513 0.0208516 0.0205133 0.0205177 0.0208516 0.0208505 0.0205177 0.0205188 0.0205133 0.0205177 0.0201741 0.0201828 0.0205177 0.0205188 0.0201828 0.0201864 0.0253888 0.0254085 0.0250706 0.025086 0.0254085 0.0254287 0.025086 0.0251029 0.0250706 0.025086 0.0247518 0.0247634 0.025086 0.0251029 0.0247634 0.0247771 0.0254287 0.0254477 0.0251029 0.0251193 0.0254477 0.0254648 0.0251193 0.0251345 0.0251029 0.0251193 0.0247771 0.0247912 0.0251193 0.0251345 0.0247912 0.0248044 0.0247518 0.0247634 0.0244323 0.0244404 0.0247634 0.0247771 0.0244404 0.0244514 0.0244323 0.0244404 0.0241119 0.0241171 0.0244404 0.0244514 0.0241171 0.0241255 0.0247771 0.0247912 0.0244514 0.0244631 0.0247912 0.0248044 0.0244631 0.0244745 0.0244514 0.0244631 0.0241255 0.0241351 0.0244631 0.0244745 0.0241351 0.0241447 0.0254648 0.0254796 0.0251345 0.0251477 0.0254796 0.0254919 0.0251477 0.025159 0.0251345 0.0251477 0.0248044 0.0248162 0.0251477 0.025159 0.0248162 0.0248263 0.0254919 0.025502 0.025159 0.0251683 0.025502 0.0255101 0.0251683 0.0251758 0.025159 0.0251683 0.0248263 0.0248348 0.0251683 0.0251758 0.0248348 0.0248418 0.0248044 0.0248162 0.0244745 0.0244849 0.0248162 0.0248263 0.0244849 0.0244939 0.0244745 0.0244849 0.0241447 0.0241537 0.0244849 0.0244939 0.0241537 0.0241617 0.0248263 0.0248348 0.0244939 0.0245016 0.0248348 0.0248418 0.0245016 0.0245079 0.0244939 0.0245016 0.0241617 0.0241686 0.0245016 0.0245079 0.0241686 0.0241743 0.0241119 0.0241171 0.0237905 0.0237932 0.0241171 0.0241255 0.0237932 0.0237994 0.0237905 0.0237932 0.0234682 0.0234688 0.0237932 0.0237994 0.0234688 0.023473 0.0241255 0.0241351 0.0237994 0.0238071 0.0241351 0.0241447 0.0238071 0.0238151 0.0237994 0.0238071 0.023473 0.023479 0.0238071 0.0238151 0.023479 0.0234855 0.0234682 0.0234688 0.0231447 0.0231438 0.0234688 0.023473 0.0231438 0.0231463 0.0231447 0.0231438 0.0228202 0.0228181 0.0231438 0.0231463 0.0228181 0.0228193 0.023473 0.023479 0.0231463 0.0231507 0.023479 0.0234855 0.0231507 0.0231558 0.0231463 0.0231507 0.0228193 0.0228223 0.0231507 0.0231558 0.0228223 0.0228262 0.0241447 0.0241537 0.0238151 0.0238228 0.0241537 0.0241617 0.0238228 0.0238297 0.0238151 0.0238228 0.0234855 0.0234919 0.0238228 0.0238297 0.0234919 0.0234978 0.0241617 0.0241686 0.0238297 0.0238357 0.0241686 0.0241743 0.0238357 0.0238408 0.0238297 0.0238357 0.0234978 0.023503 0.0238357 0.0238408 0.023503 0.0235074 0.0234855 0.0234919 0.0231558 0.0231611 0.0234919 0.0234978 0.0231611 0.023166 0.0231558 0.0231611 0.0228262 0.0228303 0.0231611 0.023166 0.0228303 0.0228342 0.0234978 0.023503 0.023166 0.0231704 0.023503 0.0235074 0.0231704 0.0231741 0.023166 0.0231704 0.0228342 0.0228378 0.0231704 0.0231741 0.0228378 0.022841 0.0255101 0.0255164 0.0251758 0.0251818 0.0255164 0.0255213 0.0251818 0.0251864 0.0251758 0.0251818 0.0248418 0.0248473 0.0251818 0.0251864 0.0248473 0.0248516 0.0255213 0.025525 0.0251864 0.0251899 0.025525 0.0255277 0.0251899 0.0251925 0.0251864 0.0251899 0.0248516 0.024855 0.0251899 0.0251925 0.024855 0.0248575 0.0248418 0.0248473 0.0245079 0.024513 0.0248473 0.0248516 0.024513 0.024517 0.0245079 0.024513 0.0241743 0.0241789 0.024513 0.024517 0.0241789 0.0241826 0.0248516 0.024855 0.024517 0.0245201 0.024855 0.0248575 0.0245201 0.0245225 0.024517 0.0245201 0.0241826 0.0241854 0.0245201 0.0245225 0.0241854 0.0241876 0.0255277 0.0255296 0.0251925 0.0251944 0.0255296 0.025531 0.0251944 0.0251958 0.0251925 0.0251944 0.0248575 0.0248593 0.0251944 0.0251958 0.0248593 0.0248606 0.025531 0.0255319 0.0251958 0.0251967 0.0255319 0.0255325 0.0251967 0.0251973 0.0251958 0.0251967 0.0248606 0.0248615 0.0251967 0.0251973 0.0248615 0.0248622 0.0248575 0.0248593 0.0245225 0.0245242 0.0248593 0.0248606 0.0245242 0.0245255 0.0245225 0.0245242 0.0241876 0.0241893 0.0245242 0.0245255 0.0241893 0.0241905 0.0248606 0.0248615 0.0245255 0.0245264 0.0248615 0.0248622 0.0245264 0.024527 0.0245255 0.0245264 0.0241905 0.0241913 0.0245264 0.024527 0.0241913 0.0241919 0.0241743 0.0241789 0.0238408 0.0238449 0.0241789 0.0241826 0.0238449 0.0238482 0.0238408 0.0238449 0.0235074 0.0235111 0.0238449 0.0238482 0.0235111 0.023514 0.0241826 0.0241854 0.0238482 0.0238508 0.0241854 0.0241876 0.0238508 0.0238528 0.0238482 0.0238508 0.023514 0.0235163 0.0238508 0.0238528 0.0235163 0.0235181 0.0235074 0.0235111 0.0231741 0.0231773 0.0235111 0.023514 0.0231773 0.0231799 0.0231741 0.0231773 0.022841 0.0228436 0.0231773 0.0231799 0.0228436 0.0228458 0.023514 0.0235163 0.0231799 0.0231819 0.0235163 0.0235181 0.0231819 0.0231835 0.0231799 0.0231819 0.0228458 0.0228475 0.0231819 0.0231835 0.0228475 0.0228489 0.0241876 0.0241893 0.0238528 0.0238544 0.0241893 0.0241905 0.0238544 0.0238555 0.0238528 0.0238544 0.0235181 0.0235195 0.0238544 0.0238555 0.0235195 0.0235205 0.0241905 0.0241913 0.0238555 0.0238563 0.0241913 0.0241919 0.0238563 0.0238568 0.0238555 0.0238563 0.0235205 0.0235213 0.0238563 0.0238568 0.0235213 0.0235218 0.0235181 0.0235195 0.0231835 0.0231847 0.0235195 0.0235205 0.0231847 0.0231856 0.0231835 0.0231847 0.0228489 0.0228499 0.0231847 0.0231856 0.0228499 0.0228507 0.0235205 0.0235213 0.0231856 0.0231863 0.0235213 0.0235218 0.0231863 0.0231868 0.0231856 0.0231863 0.0228507 0.0228513 0.0231863 0.0231868 0.0228513 0.0228517 0.0228202 0.0228181 0.0224945 0.0224917 0.0228181 0.0228193 0.0224917 0.0224918 0.0224945 0.0224917 0.0221678 0.0221645 0.0224917 0.0224918 0.0221645 0.0221638 0.0228193 0.0228223 0.0224918 0.0224936 0.0228223 0.0228262 0.0224936 0.0224964 0.0224918 0.0224936 0.0221638 0.0221647 0.0224936 0.0224964 0.0221647 0.0221665 0.0221678 0.0221645 0.02184 0.0218367 0.0221645 0.0221638 0.0218367 0.0218354 0.02184 0.0218367 0.0215111 0.0215081 0.0218367 0.0218354 0.0215081 0.0215066 0.0221638 0.0221647 0.0218354 0.0218355 0.0221647 0.0221665 0.0218355 0.0218364 0.0218354 0.0218355 0.0215066 0.021506 0.0218355 0.0218364 0.021506 0.0215061 0.0228262 0.0228303 0.0224964 0.0224995 0.0228303 0.0228342 0.0224995 0.0225025 0.0224964 0.0224995 0.0221665 0.0221686 0.0224995 0.0225025 0.0221686 0.0221708 0.0228342 0.0228378 0.0225025 0.0225054 0.0228378 0.022841 0.0225054 0.0225079 0.0225025 0.0225054 0.0221708 0.0221729 0.0225054 0.0225079 0.0221729 0.0221748 0.0221665 0.0221686 0.0218364 0.0218376 0.0221686 0.0221708 0.0218376 0.0218391 0.0218364 0.0218376 0.0215061 0.0215066 0.0218376 0.0218391 0.0215066 0.0215073 0.0221708 0.0221729 0.0218391 0.0218405 0.0221729 0.0221748 0.0218405 0.0218418 0.0218391 0.0218405 0.0215073 0.021508 0.0218405 0.0218418 0.021508 0.0215088 0.0215111 0.0215081 0.0211813 0.0211788 0.0215081 0.0215066 0.0211788 0.0211772 0.0211813 0.0211788 0.0208505 0.0208489 0.0211788 0.0211772 0.0208489 0.0208473 0.0215066 0.021506 0.0211772 0.0211762 0.021506 0.0215061 0.0211762 0.0211756 0.0211772 0.0211762 0.0208473 0.020846 0.0211762 0.0211756 0.020846 0.0208449 0.0208505 0.0208489 0.0205188 0.0205183 0.0208489 0.0208473 0.0205183 0.020517 0.0205188 0.0205183 0.0201864 0.0201871 0.0205183 0.020517 0.0201871 0.0201862 0.0208473 0.020846 0.020517 0.0205155 0.020846 0.0208449 0.0205155 0.020514 0.020517 0.0205155 0.0201862 0.0201846 0.0205155 0.020514 0.0201846 0.0201828 0.0215061 0.0215066 0.0211756 0.0211754 0.0215066 0.0215073 0.0211754 0.0211754 0.0211756 0.0211754 0.0208449 0.0208441 0.0211754 0.0211754 0.0208441 0.0208435 0.0215073 0.021508 0.0211754 0.0211756 0.021508 0.0215088 0.0211756 0.0211758 0.0211754 0.0211756 0.0208435 0.020843 0.0211756 0.0211758 0.020843 0.0208427 0.0208449 0.0208441 0.020514 0.0205126 0.0208441 0.0208435 0.0205126 0.0205114 0.020514 0.0205126 0.0201828 0.0201809 0.0205126 0.0205114 0.0201809 0.0201792 0.0208435 0.020843 0.0205114 0.0205104 0.020843 0.0208427 0.0205104 0.0205096 0.0205114 0.0205104 0.0201792 0.0201778 0.0205104 0.0205096 0.0201778 0.0201765 0.022841 0.0228436 0.0225079 0.02251 0.0228436 0.0228458 0.02251 0.0225118 0.0225079 0.02251 0.0221748 0.0221765 0.02251 0.0225118 0.0221765 0.0221778 0.0228458 0.0228475 0.0225118 0.0225132 0.0228475 0.0228489 0.0225132 0.0225144 0.0225118 0.0225132 0.0221778 0.022179 0.0225132 0.0225144 0.022179 0.0221799 0.0221748 0.0221765 0.0218418 0.0218429 0.0221765 0.0221778 0.0218429 0.0218439 0.0218418 0.0218429 0.0215088 0.0215095 0.0218429 0.0218439 0.0215095 0.0215101 0.0221778 0.022179 0.0218439 0.0218448 0.022179 0.0221799 0.0218448 0.0218454 0.0218439 0.0218448 0.0215101 0.0215106 0.0218448 0.0218454 0.0215106 0.021511 0.0228489 0.0228499 0.0225144 0.0225152 0.0228499 0.0228507 0.0225152 0.0225159 0.0225144 0.0225152 0.0221799 0.0221806 0.0225152 0.0225159 0.0221806 0.0221811 0.0228507 0.0228513 0.0225159 0.0225164 0.0228513 0.0228517 0.0225164 0.0225168 0.0225159 0.0225164 0.0221811 0.0221815 0.0225164 0.0225168 0.0221815 0.0221818 0.0221799 0.0221806 0.0218454 0.0218459 0.0221806 0.0221811 0.0218459 0.0218463 0.0218454 0.0218459 0.021511 0.0215113 0.0218459 0.0218463 0.0215113 0.0215116 0.0221811 0.0221815 0.0218463 0.0218466 0.0221815 0.0221818 0.0218466 0.0218469 0.0218463 0.0218466 0.0215116 0.0215118 0.0218466 0.0218469 0.0215118 0.0215119 0.0215088 0.0215095 0.0211758 0.021176 0.0215095 0.0215101 0.021176 0.0211762 0.0211758 0.021176 0.0208427 0.0208425 0.021176 0.0211762 0.0208425 0.0208423 0.0215101 0.0215106 0.0211762 0.0211764 0.0215106 0.021511 0.0211764 0.0211766 0.0211762 0.0211764 0.0208423 0.0208422 0.0211764 0.0211766 0.0208422 0.0208422 0.0208427 0.0208425 0.0205096 0.020509 0.0208425 0.0208423 0.020509 0.0205085 0.0205096 0.020509 0.0201765 0.0201754 0.020509 0.0205085 0.0201754 0.0201746 0.0208423 0.0208422 0.0205085 0.0205081 0.0208422 0.0208422 0.0205081 0.0205078 0.0205085 0.0205081 0.0201746 0.0201739 0.0205081 0.0205078 0.0201739 0.0201734 0.021511 0.0215113 0.0211766 0.0211767 0.0215113 0.0215116 0.0211767 0.0211768 0.0211766 0.0211767 0.0208422 0.0208421 0.0211767 0.0211768 0.0208421 0.0208421 0.0215116 0.0215118 0.0211768 0.0211769 0.0215118 0.0215119 0.0211769 0.021177 0.0211768 0.0211769 0.0208421 0.0208421 0.0211769 0.021177 0.0208421 0.0208421 0.0208422 0.0208421 0.0205078 0.0205076 0.0208421 0.0208421 0.0205076 0.0205074 0.0205078 0.0205076 0.0201734 0.020173 0.0205076 0.0205074 0.020173 0.0201727 0.0208421 0.0208421 0.0205074 0.0205073 0.0208421 0.0208421 0.0205073 0.