# vtk DataFile Version 3.0
#This file was generated by the deal.II library on 2022/1/6 at 22:57:58
ASCII
DATASET UNSTRUCTURED_GRID

POINTS 16384 double
0 0 0
0.1875 0 0
0 0.046875 0
0.1875 0.046875 0
0.1875 0 0
0.375 0 0
0.1875 0.046875 0
0.375 0.046875 0
0 0.046875 0
0.1875 0.046875 0
0 0.09375 0
0.1875 0.09375 0
0.1875 0.046875 0
0.375 0.046875 0
0.1875 0.09375 0
0.375 0.09375 0
0.375 0 0
0.5625 0 0
0.375 0.046875 0
0.5625 0.046875 0
0.5625 0 0
0.75 0 0
0.5625 0.046875 0
0.75 0.046875 0
0.375 0.046875 0
0.5625 0.046875 0
0.375 0.09375 0
0.5625 0.09375 0
0.5625 0.046875 0
0.75 0.046875 0
0.5625 0.09375 0
0.75 0.09375 0
0 0.09375 0
0.1875 0.09375 0
0 0.140625 0
0.1875 0.140625 0
0.1875 0.09375 0
0.375 0.09375 0
0.1875 0.140625 0
0.375 0.140625 0
0 0.140625 0
0.1875 0.140625 0
0 0.1875 0
0.1875 0.1875 0
0.1875 0.140625 0
0.375 0.140625 0
0.1875 0.1875 0
0.375 0.1875 0
0.375 0.09375 0
0.5625 0.09375 0
0.375 0.140625 0
0.5625 0.140625 0
0.5625 0.09375 0
0.75 0.09375 0
0.5625 0.140625 0
0.75 0.140625 0
0.375 0.140625 0
0.5625 0.140625 0
0.375 0.1875 0
0.5625 0.1875 0
0.5625 0.140625 0
0.75 0.140625 0
0.5625 0.1875 0
0.75 0.1875 0
0.75 0 0
0.9375 0 0
0.75 0.046875 0
0.9375 0.046875 0
0.9375 0 0
1.125 0 0
0.9375 0.046875 0
1.125 0.046875 0
0.75 0.046875 0
0.9375 0.046875 0
0.75 0.09375 0
0.9375 0.09375 0
0.9375 0.046875 0
1.125 0.046875 0
0.9375 0.09375 0
1.125 0.09375 0
1.125 0 0
1.3125 0 0
1.125 0.046875 0
1.3125 0.046875 0
1.3125 0 0
1.5 0 0
1.3125 0.046875 0
1.5 0.046875 0
1.125 0.046875 0
1.3125 0.046875 0
1.125 0.09375 0
1.3125 0.09375 0
1.3125 0.046875 0
1.5 0.046875 0
1.3125 0.09375 0
1.5 0.09375 0
0.75 0.09375 0
0.9375 0.09375 0
0.75 0.140625 0
0.9375 0.140625 0
0.9375 0.09375 0
1.125 0.09375 0
0.9375 0.140625 0
1.125 0.140625 0
0.75 0.140625 0
0.9375 0.140625 0
0.75 0.1875 0
0.9375 0.1875 0
0.9375 0.140625 0
1.125 0.140625 0
0.9375 0.1875 0
1.125 0.1875 0
1.125 0.09375 0
1.3125 0.09375 0
1.125 0.140625 0
1.3125 0.140625 0
1.3125 0.09375 0
1.5 0.09375 0
1.3125 0.140625 0
1.5 0.140625 0
1.125 0.140625 0
1.3125 0.140625 0
1.125 0.1875 0
1.3125 0.1875 0
1.3125 0.140625 0
1.5 0.140625 0
1.3125 0.1875 0
1.5 0.1875 0
0 0.1875 0
0.1875 0.1875 0
0 0.234375 0
0.1875 0.234375 0
0.1875 0.1875 0
0.375 0.1875 0
0.1875 0.234375 0
0.375 0.234375 0
0 0.234375 0
0.1875 0.234375 0
0 0.28125 0
0.1875 0.28125 0
0.1875 0.234375 0
0.375 0.234375 0
0.1875 0.28125 0
0.375 0.28125 0
0.375 0.1875 0
0.5625 0.1875 0
0.375 0.234375 0
0.5625 0.234375 0
0.5625 0.1875 0
0.75 0.1875 0
0.5625 0.234375 0
0.75 0.234375 0
0.375 0.234375 0
0.5625 0.234375 0
0.375 0.28125 0
0.5625 0.28125 0
0.5625 0.234375 0
0.75 0.234375 0
0.5625 0.28125 0
0.75 0.28125 0
0 0.28125 0
0.1875 0.28125 0
0 0.328125 0
0.1875 0.328125 0
0.1875 0.28125 0
0.375 0.28125 0
0.1875 0.328125 0
0.375 0.328125 0
0 0.328125 0
0.1875 0.328125 0
0 0.375 0
0.1875 0.375 0
0.1875 0.328125 0
0.375 0.328125 0
0.1875 0.375 0
0.375 0.375 0
0.375 0.28125 0
0.5625 0.28125 0
0.375 0.328125 0
0.5625 0.328125 0
0.5625 0.28125 0
0.75 0.28125 0
0.5625 0.328125 0
0.75 0.328125 0
0.375 0.328125 0
0.5625 0.328125 0
0.375 0.375 0
0.5625 0.375 0
0.5625 0.328125 0
0.75 0.328125 0
0.5625 0.375 0
0.75 0.375 0
0.75 0.1875 0
0.9375 0.1875 0
0.75 0.234375 0
0.9375 0.234375 0
0.9375 0.1875 0
1.125 0.1875 0
0.9375 0.234375 0
1.125 0.234375 0
0.75 0.234375 0
0.9375 0.234375 0
0.75 0.28125 0
0.9375 0.28125 0
0.9375 0.234375 0
1.125 0.234375 0
0.9375 0.28125 0
1.125 0.28125 0
1.125 0.1875 0
1.3125 0.1875 0
1.125 0.234375 0
1.3125 0.234375 0
1.3125 0.1875 0
1.5 0.1875 0
1.3125 0.234375 0
1.5 0.234375 0
1.125 0.234375 0
1.3125 0.234375 0
1.125 0.28125 0
1.3125 0.28125 0
1.3125 0.234375 0
1.5 0.234375 0
1.3125 0.28125 0
1.5 0.28125 0
0.75 0.28125 0
0.9375 0.28125 0
0.75 0.328125 0
0.9375 0.328125 0
0.9375 0.28125 0
1.125 0.28125 0
0.9375 0.328125 0
1.125 0.328125 0
0.75 0.328125 0
0.9375 0.328125 0
0.75 0.375 0
0.9375 0.375 0
0.9375 0.328125 0
1.125 0.328125 0
0.9375 0.375 0
1.125 0.375 0
1.125 0.28125 0
1.3125 0.28125 0
1.125 0.328125 0
1.3125 0.328125 0
1.3125 0.28125 0
1.5 0.28125 0
1.3125 0.328125 0
1.5 0.328125 0
1.125 0.328125 0
1.3125 0.328125 0
1.125 0.375 0
1.3125 0.375 0
1.3125 0.328125 0
1.5 0.328125 0
1.3125 0.375 0
1.5 0.375 0
1.5 0 0
1.6875 0 0
1.5 0.046875 0
1.6875 0.046875 0
1.6875 0 0
1.875 0 0
1.6875 0.046875 0
1.875 0.046875 0
1.5 0.046875 0
1.6875 0.046875 0
1.5 0.09375 0
1.6875 0.09375 0
1.6875 0.046875 0
1.875 0.046875 0
1.6875 0.09375 0
1.875 0.09375 0
1.875 0 0
2.0625 0 0
1.875 0.046875 0
2.0625 0.046875 0
2.0625 0 0
2.25 0 0
2.0625 0.046875 0
2.25 0.046875 0
1.875 0.046875 0
2.0625 0.046875 0
1.875 0.09375 0
2.0625 0.09375 0
2.0625 0.046875 0
2.25 0.046875 0
2.0625 0.09375 0
2.25 0.09375 0
1.5 0.09375 0
1.6875 0.09375 0
1.5 0.140625 0
1.6875 0.140625 0
1.6875 0.09375 0
1.875 0.09375 0
1.6875 0.140625 0
1.875 0.140625 0
1.5 0.140625 0
1.6875 0.140625 0
1.5 0.1875 0
1.6875 0.1875 0
1.6875 0.140625 0
1.875 0.140625 0
1.6875 0.1875 0
1.875 0.1875 0
1.875 0.09375 0
2.0625 0.09375 0
1.875 0.140625 0
2.0625 0.140625 0
2.0625 0.09375 0
2.25 0.09375 0
2.0625 0.140625 0
2.25 0.140625 0
1.875 0.140625 0
2.0625 0.140625 0
1.875 0.1875 0
2.0625 0.1875 0
2.0625 0.140625 0
2.25 0.140625 0
2.0625 0.1875 0
2.25 0.1875 0
2.25 0 0
2.4375 0 0
2.25 0.046875 0
2.4375 0.046875 0
2.4375 0 0
2.625 0 0
2.4375 0.046875 0
2.625 0.046875 0
2.25 0.046875 0
2.4375 0.046875 0
2.25 0.09375 0
2.4375 0.09375 0
2.4375 0.046875 0
2.625 0.046875 0
2.4375 0.09375 0
2.625 0.09375 0
2.625 0 0
2.8125 0 0
2.625 0.046875 0
2.8125 0.046875 0
2.8125 0 0
3 0 0
2.8125 0.046875 0
3 0.046875 0
2.625 0.046875 0
2.8125 0.046875 0
2.625 0.09375 0
2.8125 0.09375 0
2.8125 0.046875 0
3 0.046875 0
2.8125 0.09375 0
3 0.09375 0
2.25 0.09375 0
2.4375 0.09375 0
2.25 0.140625 0
2.4375 0.140625 0
2.4375 0.09375 0
2.625 0.09375 0
2.4375 0.140625 0
2.625 0.140625 0
2.25 0.140625 0
2.4375 0.140625 0
2.25 0.1875 0
2.4375 0.1875 0
2.4375 0.140625 0
2.625 0.140625 0
2.4375 0.1875 0
2.625 0.1875 0
2.625 0.09375 0
2.8125 0.09375 0
2.625 0.140625 0
2.8125 0.140625 0
2.8125 0.09375 0
3 0.09375 0
2.8125 0.140625 0
3 0.140625 0
2.625 0.140625 0
2.8125 0.140625 0
2.625 0.1875 0
2.8125 0.1875 0
2.8125 0.140625 0
3 0.140625 0
2.8125 0.1875 0
3 0.1875 0
1.5 0.1875 0
1.6875 0.1875 0
1.5 0.234375 0
1.6875 0.234375 0
1.6875 0.1875 0
1.875 0.1875 0
1.6875 0.234375 0
1.875 0.234375 0
1.5 0.234375 0
1.6875 0.234375 0
1.5 0.28125 0
1.6875 0.28125 0
1.6875 0.234375 0
1.875 0.234375 0
1.6875 0.28125 0
1.875 0.28125 0
1.875 0.1875 0
2.0625 0.1875 0
1.875 0.234375 0
2.0625 0.234375 0
2.0625 0.1875 0
2.25 0.1875 0
2.0625 0.234375 0
2.25 0.234375 0
1.875 0.234375 0
2.0625 0.234375 0
1.875 0.28125 0
2.0625 0.28125 0
2.0625 0.234375 0
2.25 0.234375 0
2.0625 0.28125 0
2.25 0.28125 0
1.5 0.28125 0
1.6875 0.28125 0
1.5 0.328125 0
1.6875 0.328125 0
1.6875 0.28125 0
1.875 0.28125 0
1.6875 0.328125 0
1.875 0.328125 0
1.5 0.328125 0
1.6875 0.328125 0
1.5 0.375 0
1.6875 0.375 0
1.6875 0.328125 0
1.875 0.328125 0
1.6875 0.375 0
1.875 0.375 0
1.875 0.28125 0
2.0625 0.28125 0
1.875 0.328125 0
2.0625 0.328125 0
2.0625 0.28125 0
2.25 0.28125 0
2.0625 0.328125 0
2.25 0.328125 0
1.875 0.328125 0
2.0625 0.328125 0
1.875 0.375 0
2.0625 0.375 0
2.0625 0.328125 0
2.25 0.328125 0
2.0625 0.375 0
2.25 0.375 0
2.25 0.1875 0
2.4375 0.1875 0
2.25 0.234375 0
2.4375 0.234375 0
2.4375 0.1875 0
2.625 0.1875 0
2.4375 0.234375 0
2.625 0.234375 0
2.25 0.234375 0
2.4375 0.234375 0
2.25 0.28125 0
2.4375 0.28125 0
2.4375 0.234375 0
2.625 0.234375 0
2.4375 0.28125 0
2.625 0.28125 0
2.625 0.1875 0
2.8125 0.1875 0
2.625 0.234375 0
2.8125 0.234375 0
2.8125 0.1875 0
3 0.1875 0
2.8125 0.234375 0
3 0.234375 0
2.625 0.234375 0
2.8125 0.234375 0
2.625 0.28125 0
2.8125 0.28125 0
2.8125 0.234375 0
3 0.234375 0
2.8125 0.28125 0
3 0.28125 0
2.25 0.28125 0
2.4375 0.28125 0
2.25 0.328125 0
2.4375 0.328125 0
2.4375 0.28125 0
2.625 0.28125 0
2.4375 0.328125 0
2.625 0.328125 0
2.25 0.328125 0
2.4375 0.328125 0
2.25 0.375 0
2.4375 0.375 0
2.4375 0.328125 0
2.625 0.328125 0
2.4375 0.375 0
2.625 0.375 0
2.625 0.28125 0
2.8125 0.28125 0
2.625 0.328125 0
2.8125 0.328125 0
2.8125 0.28125 0
3 0.28125 0
2.8125 0.328125 0
3 0.328125 0
2.625 0.328125 0
2.8125 0.328125 0
2.625 0.375 0
2.8125 0.375 0
2.8125 0.328125 0
3 0.328125 0
2.8125 0.375 0
3 0.375 0
0 0.375 0
0.1875 0.375 0
0 0.421875 0
0.1875 0.421875 0
0.1875 0.375 0
0.375 0.375 0
0.1875 0.421875 0
0.375 0.421875 0
0 0.421875 0
0.1875 0.421875 0
0 0.46875 0
0.1875 0.46875 0
0.1875 0.421875 0
0.375 0.421875 0
0.1875 0.46875 0
0.375 0.46875 0
0.375 0.375 0
0.5625 0.375 0
0.375 0.421875 0
0.5625 0.421875 0
0.5625 0.375 0
0.75 0.375 0
0.5625 0.421875 0
0.75 0.421875 0
0.375 0.421875 0
0.5625 0.421875 0
0.375 0.46875 0
0.5625 0.46875 0
0.5625 0.421875 0
0.75 0.421875 0
0.5625 0.46875 0
0.75 0.46875 0
0 0.46875 0
0.1875 0.46875 0
0 0.515625 0
0.1875 0.515625 0
0.1875 0.46875 0
0.375 0.46875 0
0.1875 0.515625 0
0.375 0.515625 0
0 0.515625 0
0.1875 0.515625 0
0 0.5625 0
0.1875 0.5625 0
0.1875 0.515625 0
0.375 0.515625 0
0.1875 0.5625 0
0.375 0.5625 0
0.375 0.46875 0
0.5625 0.46875 0
0.375 0.515625 0
0.5625 0.515625 0
0.5625 0.46875 0
0.75 0.46875 0
0.5625 0.515625 0
0.75 0.515625 0
0.375 0.515625 0
0.5625 0.515625 0
0.375 0.5625 0
0.5625 0.5625 0
0.5625 0.515625 0
0.75 0.515625 0
0.5625 0.5625 0
0.75 0.5625 0
0.75 0.375 0
0.9375 0.375 0
0.75 0.421875 0
0.9375 0.421875 0
0.9375 0.375 0
1.125 0.375 0
0.9375 0.421875 0
1.125 0.421875 0
0.75 0.421875 0
0.9375 0.421875 0
0.75 0.46875 0
0.9375 0.46875 0
0.9375 0.421875 0
1.125 0.421875 0
0.9375 0.46875 0
1.125 0.46875 0
1.125 0.375 0
1.3125 0.375 0
1.125 0.421875 0
1.3125 0.421875 0
1.3125 0.375 0
1.5 0.375 0
1.3125 0.421875 0
1.5 0.421875 0
1.125 0.421875 0
1.3125 0.421875 0
1.125 0.46875 0
1.3125 0.46875 0
1.3125 0.421875 0
1.5 0.421875 0
1.3125 0.46875 0
1.5 0.46875 0
0.75 0.46875 0
0.9375 0.46875 0
0.75 0.515625 0
0.9375 0.515625 0
0.9375 0.46875 0
1.125 0.46875 0
0.9375 0.515625 0
1.125 0.515625 0
0.75 0.515625 0
0.9375 0.515625 0
[...]
POINT_DATA 16384
SCALARS x_displacement double 1
LOOKUP_TABLE default
0 0.0336866 0 0.0301095 0.0336866 0.0594462 0.0301095 0.0577622 0 0.0301095 0 0.0276562 0.0301095 0.0577622 0.0276562 0.054981 0.0594462 0.0756682 0.0577622 0.0743498 0.0756682 0.0821802 0.0743498 0.0813575 0.0577622 0.0743498 0.054981 0.0723473 0.0743498 0.0813575 0.0723473 0.0800951 0 0.0276562 0 0.0256442 0.0276562 0.054981 0.0256442 0.0514088 0 0.0256442 0 0.0239567 0.0256442 0.0514088 0.0239567 0.0477834 0.054981 0.0723473 0.0514088 0.0695587 0.0723473 0.0800951 0.0695587 0.0784311 0.0514088 0.0695587 0.0477834 0.065836 0.0695587 0.0784311 0.065836 0.0764969 0.0821802 0.0883351 0.0813575 0.0879775 0.0883351 0.0950919 0.0879775 0.095079 0.0813575 0.0879775 0.0800951 0.0873841 0.0879775 0.095079 0.0873841 0.0948854 0.0950919 0.101974 0.095079 0.102109 0.101974 0.108599 0.102109 0.108804 0.095079 0.102109 0.0948854 0.102118 0.102109 0.108804 0.102118 0.108913 0.0800951 0.0873841 0.0784311 0.0865954 0.0873841 0.0948854 0.0865954 0.0945393 0.0784311 0.0865954 0.0764969 0.085658 0.0865954 0.0945393 0.085658 0.0940624 0.0948854 0.102118 0.0945393 0.102009 0.102118 0.108913 0.102009 0.108932 0.0945393 0.102009 0.0940624 0.101798 0.102009 0.108932 0.101798 0.108868 0 0.0239567 0 0.02253 0.0239567 0.0477834 0.02253 0.0443941 0 0.02253 0 0.0212773 0.02253 0.0443941 0.0212773 0.041707 0.0477834 0.065836 0.0443941 0.0620596 0.065836 0.0764969 0.0620596 0.0745277 0.0443941 0.0620596 0.041707 0.0590336 0.0620596 0.0745277 0.0590336 0.0725594 0 0.0212773 0 0.0202225 0.0212773 0.041707 0.0202225 0.0395753 0 0.0202225 0 0.0193541 0.0202225 0.0395753 0.0193541 0.037876 0.041707 0.0590336 0.0395753 0.0566133 0.0590336 0.0725594 0.0566133 0.0707187 0.0395753 0.0566133 0.037876 0.0546362 0.0566133 0.0707187 0.0546362 0.0690543 0.0764969 0.085658 0.0745277 0.0845948 0.085658 0.0940624 0.0845948 0.0934826 0.0745277 0.0845948 0.0725594 0.0834628 0.0845948 0.0934826 0.0834628 0.0928211 0.0940624 0.101798 0.0934826 0.101497 0.101798 0.108868 0.101497 0.108731 0.0934826 0.101497 0.0928211 0.10112 0.101497 0.108731 0.10112 0.108527 0.0725594 0.0834628 0.0707187 0.0822952 0.0834628 0.0928211 0.0822952 0.092102 0.0707187 0.0822952 0.0690543 0.0811332 0.0822952 0.092102 0.0811332 0.0913446 0.0928211 0.10112 0.092102 0.100681 0.10112 0.108527 0.100681 0.108267 0.092102 0.100681 0.0913446 0.100194 0.100681 0.108267 0.100194 0.107957 0.108599 0.114796 0.108804 0.115026 0.114796 0.120486 0.115026 0.12071 0.108804 0.115026 0.108913 0.11518 0.115026 0.12071 0.11518 0.120875 0.120486 0.125636 0.12071 0.125837 0.125636 0.130244 0.125837 0.130408 0.12071 0.125837 0.120875 0.12599 0.125837 0.130408 0.12599 0.130535 0.108913 0.11518 0.108932 0.115262 0.11518 0.120875 0.115262 0.120983 0.108932 0.115262 0.108868 0.115279 0.115262 0.120983 0.115279 0.121037 0.120875 0.12599 0.120983 0.126097 0.12599 0.130535 0.126097 0.130626 0.120983 0.126097 0.121037 0.126162 0.126097 0.130626 0.126162 0.130683 0.130244 0.134323 0.130408 0.134444 0.134323 0.1379 0.134444 0.137974 0.130408 0.134444 0.130535 0.134537 0.134444 0.137974 0.134537 0.138027 0.1379 0.141007 0.137974 0.141034 0.141007 0.143682 0.141034 0.143664 0.137974 0.141034 0.138027 0.141045 0.141034 0.143664 0.141045 0.143634 0.130535 0.134537 0.130626 0.134601 0.134537 0.138027 0.134601 0.138058 0.130626 0.134601 0.130683 0.134637 0.134601 0.138058 0.134637 0.138067 0.138027 0.141045 0.138058 0.141039 0.141045 0.143634 0.141039 0.143591 0.138058 0.141039 0.138067 0.141017 0.141039 0.143591 0.141017 0.143536 0.108868 0.115279 0.108731 0.115234 0.115279 0.121037 0.115234 0.121041 0.108731 0.115234 0.108527 0.115134 0.115234 0.121041 0.115134 0.120998 0.121037 0.126162 0.121041 0.126185 0.126162 0.130683 0.126185 0.130706 0.121041 0.126185 0.120998 0.126169 0.126185 0.130706 0.126169 0.130697 0.108527 0.115134 0.108267 0.114983 0.115134 0.120998 0.114983 0.120912 0.108267 0.114983 0.107957 0.114788 0.114983 0.120912 0.114788 0.120787 0.120998 0.126169 0.120912 0.126117 0.126169 0.130697 0.126117 0.130658 0.120912 0.126117 0.120787 0.126032 0.126117 0.130658 0.126032 0.13059 0.130683 0.134637 0.130706 0.134647 0.134637 0.138067 0.134647 0.138055 0.130706 0.134647 0.130697 0.13463 0.134647 0.138055 0.13463 0.138022 0.138067 0.141017 0.138055 0.140979 0.141017 0.143536 0.140979 0.143468 0.138055 0.140979 0.138022 0.140924 0.140979 0.143468 0.140924 0.143387 0.130697 0.13463 0.130658 0.134589 0.13463 0.138022 0.134589 0.137969 0.130658 0.134589 0.13059 0.134524 0.134589 0.137969 0.134524 0.137897 0.138022 0.140924 0.137969 0.140853 0.140924 0.143387 0.140853 0.143294 0.137969 0.140853 0.137897 0.140766 0.140853 0.143294 0.140766 0.143188 0 0.0193541 0 0.0186473 0.0193541 0.037876 0.0186473 0.0365125 0 0.0186473 0 0.0180741 0.0186473 0.0365125 0.0180741 0.0354109 0.037876 0.0546362 0.0365125 0.0530012 0.0546362 0.0690543 0.0530012 0.0675702 0.0365125 0.0530012 0.0354109 0.0516378 0.0530012 0.0675702 0.0516378 0.0662554 0 0.0180741 0 0.0176091 0.0180741 0.0354109 0.0176091 0.0345148 0 0.0176091 0 0.0172303 0.0176091 0.0345148 0.0172303 0.0337809 0.0354109 0.0516378 0.0345148 0.0504934 0.0516378 0.0662554 0.0504934 0.0650942 0.0345148 0.0504934 0.0337809 0.0495273 0.0504934 0.0650942 0.0495273 0.0640695 0.0690543 0.0811332 0.0675702 0.0800091 0.0811332 0.0913446 0.0800091 0.0905674 0.0675702 0.0800091 0.0662554 0.0789427 0.0800091 0.0905674 0.0789427 0.089787 0.0913446 0.100194 0.0905674 0.0996695 0.100194 0.107957 0.0996695 0.107607 0.0905674 0.0996695 0.089787 0.0991198 0.0996695 0.107607 0.0991198 0.107223 0.0662554 0.0789427 0.0650942 0.0779443 0.0789427 0.089787 0.0779443 0.0890171 0.0650942 0.0779443 0.0640695 0.0770179 0.0779443 0.0890171 0.0770179 0.0882679 0.089787 0.0991198 0.0890171 0.0985544 0.0991198 0.107223 0.0985544 0.106814 0.0890171 0.0985544 0.0882679 0.0979821 0.0985544 0.106814 0.0979821 0.106386 0 0.0172303 0 0.0169201 0.0172303 0.0337809 0.0169201 0.0331755 0 0.0169201 0 0.0166644 0.0169201 0.0331755 0.0166644 0.0326723 0.0337809 0.0495273 0.0331755 0.0487075 0.0495273 0.0640695 0.0487075 0.0631653 0.0331755 0.0487075 0.0326723 0.048008 0.0487075 0.0631653 0.048008 0.0623664 0 0.0166644 0 0.016452 0.0166644 0.0326723 0.016452 0.032251 0 0.016452 0 0.0162741 0.016452 0.032251 0.0162741 0.0318954 0.0326723 0.048008 0.032251 0.047408 0.048008 0.0623664 0.047408 0.0616594 0.032251 0.047408 0.0318954 0.0468906 0.047408 0.0616594 0.0468906 0.0610324 0.0640695 0.0770179 0.0631653 0.0761635 0.0770179 0.0882679 0.0761635 0.0875464 0.0631653 0.0761635 0.0623664 0.0753787 0.0761635 0.0875464 0.0753787 0.0868573 0.0882679 0.0979821 0.0875464 0.0974102 0.0979821 0.106386 0.0974102 0.105944 0.0875464 0.0974102 0.0868573 0.0968449 0.0974102 0.105944 0.0968449 0.105495 0.0623664 0.0753787 0.0616594 0.0746596 0.0753787 0.0868573 0.0746596 0.0862032 0.0616594 0.0746596 0.0610324 0.0740015 0.0746596 0.0862032 0.0740015 0.0855852 0.0868573 0.0968449 0.0862032 0.0962907 0.0968449 0.105495 0.0962907 0.105041 0.0862032 0.0962907 0.0855852 0.0957513 0.0962907 0.105041 0.0957513 0.104589 0.107957 0.114788 0.107607 0.114553 0.114788 0.120787 0.114553 0.120626 0.107607 0.114553 0.107223 0.114285 0.114553 0.120626 0.114285 0.120434 0.120787 0.126032 0.120626 0.125915 0.126032 0.13059 0.125915 0.130496 0.120626 0.125915 0.120434 0.12577 0.125915 0.130496 0.12577 0.130376 0.107223 0.114285 0.106814 0.113988 0.114285 0.120434 0.113988 0.120213 0.106814 0.113988 0.106386 0.113667 0.113988 0.120213 0.113667 0.119968 0.120434 0.12577 0.120213 0.125598 0.12577 0.130376 0.125598 0.130234 0.120213 0.125598 0.119968 0.125404 0.125598 0.130234 0.125404 0.13007 0.13059 0.134524 0.130496 0.134437 0.134524 0.137897 0.134437 0.137806 0.130496 0.134437 0.130376 0.134328 0.134437 0.137806 0.134328 0.137696 0.137897 0.140766 0.137806 0.140663 0.140766 0.143188 0.140663 0.14307 0.137806 0.140663 0.137696 0.140546 0.140663 0.14307 0.140546 0.142939 0.130376 0.134328 0.130234 0.134199 0.134328 0.137696 0.134199 0.13757 0.130234 0.134199 0.13007 0.134051 0.134199 0.13757 0.134051 0.137427 0.137696 0.140546 0.13757 0.140414 0.140546 0.142939 0.140414 0.142797 0.13757 0.140414 0.137427 0.140268 0.140414 0.142797 0.140268 0.142642 0.106386 0.113667 0.105944 0.113327 0.113667 0.119968 0.113327 0.119702 0.105944 0.113327 0.105495 0.112971 0.113327 0.119702 0.112971 0.119417 0.119968 0.125404 0.119702 0.125188 0.125404 0.13007 0.125188 0.129886 0.119702 0.125188 0.119417 0.124953 0.125188 0.129886 0.124953 0.129685 0.105495 0.112971 0.105041 0.112604 0.112971 0.119417 0.112604 0.119117 0.105041 0.112604 0.104589 0.112229 0.112604 0.119117 0.112229 0.118805 0.119417 0.124953 0.119117 0.124703 0.124953 0.129685 0.124703 0.129467 0.119117 0.124703 0.118805 0.124437 0.124703 0.129467 0.124437 0.129234 0.13007 0.134051 0.129886 0.133886 0.134051 0.137427 0.133886 0.137268 0.129886 0.133886 0.129685 0.133703 0.133886 0.137268 0.133703 0.137095 0.137427 0.140268 0.137268 0.140109 0.140268 0.142642 0.140109 0.142476 0.137268 0.140109 0.137095 0.139936 0.140109 0.142476 0.139936 0.142299 0.129685 0.133703 0.129467 0.133506 0.133703 0.137095 0.133506 0.136907 0.129467 0.133506 0.129234 0.133294 0.133506 0.136907 0.133294 0.136707 0.137095 0.139936 0.136907 0.139751 0.139936 0.142299 0.139751 0.142111 0.136907 0.139751 0.136707 0.139554 0.139751 0.142111 0.139554 0.141912 0.143682 0.145968 0.143664 0.145906 0.145968 0.147904 0.145906 0.147802 0.143664 0.145906 0.143634 0.145835 0.145906 0.147802 0.145835 0.147694 0.147904 0.149532 0.147802 0.149393 0.149532 0.150889 0.149393 0.150717 0.147802 0.149393 0.147694 0.14925 0.149393 0.150717 0.14925 0.150544 0.143634 0.145835 0.143591 0.145756 0.145835 0.147694 0.145756 0.14758 0.143591 0.145756 0.143536 0.145668 0.145756 0.14758 0.145668 0.14746 0.147694 0.14925 0.14758 0.149104 0.14925 0.150544 0.149104 0.150369 0.14758 0.149104 0.14746 0.148954 0.149104 0.150369 0.148954 0.150191 0.150889 0.152012 0.150717 0.151812 0.152012 0.152936 0.151812 0.15271 0.150717 0.151812 0.150544 0.151611 0.151812 0.15271 0.151611 0.152486 0.152936 0.153689 0.15271 0.153442 0.153689 0.154299 0.153442 0.154034 0.15271 0.153442 0.152486 0.153197 0.153442 0.154034 0.153197 0.153771 0.150544 0.151611 0.150369 0.15141 0.151611 0.152486 0.15141 0.152261 0.150369 0.15141 0.150191 0.151207 0.15141 0.152261 0.151207 0.152036 0.152486 0.153197 0.152261 0.152952 0.153197 0.153771 0.152952 0.153509 0.152261 0.152952 0.152036 0.152708 0.152952 0.153509 0.152708 0.153248 0.143536 0.145668 0.143468 0.14557 0.145668 0.14746 0.14557 0.147332 0.143468 0.14557 0.143387 0.145463 0.14557 0.147332 0.145463 0.147198 0.14746 0.148954 0.147332 0.148799 0.148954 0.150191 0.148799 0.150009 0.147332 0.148799 0.147198 0.148638 0.148799 0.150009 0.148638 0.149825 0.143387 0.145463 0.143294 0.145346 0.145463 0.147198 0.145346 0.147056 0.143294 0.145346 0.143188 0.145218 0.145346 0.147056 0.145218 0.146907 0.147198 0.148638 0.147056 0.148473 0.148638 0.149825 0.148473 0.149636 0.147056 0.148473 0.146907 0.148301 0.148473 0.149636 0.148301 0.149444 0.150191 0.151207 0.150009 0.151002 0.151207 0.152036 0.151002 0.15181 0.150009 0.151002 0.149825 0.150795 0.151002 0.15181 0.150795 0.151583 0.152036 0.152708 0.15181 0.152463 0.152708 0.153248 0.152463 0.152987 0.15181 0.152463 0.151583 0.152218 0.152463 0.152987 0.152218 0.152726 0.149825 0.150795 0.149636 0.150585 0.150795 0.151583 0.150585 0.151354 0.149636 0.150585 0.149444 0.150373 0.150585 0.151354 0.150373 0.151123 0.151583 0.152218 0.151354 0.151972 0.152218 0.152726 0.151972 0.152465 0.151354 0.151972 0.151123 0.151724 0.151972 0.152465 0.151724 0.152203 0.154299 0.154789 0.154034 0.154509 0.154789 0.15518 0.154509 0.154889 0.154034 0.154509 0.153771 0.154232 0.154509 0.154889 0.154232 0.154599 0.15518 0.155491 0.154889 0.155189 0.155491 0.155735 0.155189 0.155425 0.154889 0.155189 0.154599 0.154889 0.155189 0.155425 0.154889 0.155117 0.153771 0.154232 0.153509 0.153955 0.154232 0.154599 0.153955 0.15431 0.153509 0.153955 0.153248 0.15368 0.153955 0.15431 0.15368 0.154022 0.154599 0.154889 0.15431 0.15459 0.154889 0.155117 0.15459 0.15481 0.15431 0.15459 0.154022 0.154293 0.15459 0.15481 0.154293 0.154504 0.155735 0.155926 0.155425 0.15561 0.155926 0.156075 0.15561 0.155753 0.155425 0.15561 0.155117 0.155295 0.15561 0.155753 0.155295 0.155433 0.156075 0.156189 0.155753 0.155864 0.156189 0.156277 0.155864 0.155948 0.155753 0.155864 0.155433 0.15554 0.155864 0.155948 0.15554 0.155621 0.155117 0.155295 0.15481 0.154982 0.155295 0.155433 0.154982 0.155114 0.15481 0.154982 0.154504 0.154669 0.154982 0.155114 0.154669 0.154797 0.155433 0.15554 0.155114 0.155217 0.15554 0.155621 0.155217 0.155295 0.155114 0.155217 0.154797 0.154894 0.155217 0.155295 0.154894 0.154969 0.153248 0.15368 0.152987 0.153405 0.15368 0.154022 0.153405 0.153736 0.152987 0.153405 0.152726 0.15313 0.153405 0.153736 0.15313 0.15345 0.154022 0.154293 0.153736 0.153996 0.154293 0.154504 0.153996 0.1542 0.153736 0.153996 0.15345 0.1537 0.153996 0.1542 0.1537 0.153896 0.152726 0.15313 0.152465 0.152856 0.15313 0.15345 0.152856 0.153164 0.152465 0.152856 0.152203 0.152581 0.152856 0.153164 0.152581 0.152878 0.15345 0.1537 0.153164 0.153405 0.1537 0.153896 0.153405 0.153592 0.153164 0.153405 0.152878 0.15311 0.153405 0.153592 0.15311 0.153289 0.154504 0.154669 0.1542 0.154358 0.154669 0.154797 0.154358 0.15448 0.1542 0.154358 0.153896 0.154047 0.154358 0.15448 0.154047 0.154164 0.154797 0.154894 0.15448 0.154573 0.154894 0.154969 0.154573 0.154645 0.15448 0.154573 0.154164 0.154253 0.154573 0.154645 0.154253 0.15432 0.153896 0.154047 0.153592 0.153737 0.154047 0.154164 0.153737 0.153848 0.153592 0.153737 0.153289 0.153427 0.153737 0.153848 0.153427 0.153533 0.154164 0.154253 0.153848 0.153933 0.154253 0.15432 0.153933 0.153997 0.153848 0.153933 0.153533 0.153613 0.153933 0.153997 0.153613 0.153674 0.143188 0.145218 0.14307 0.145081 0.145218 0.146907 0.145081 0.14675 0.14307 0.145081 0.142939 0.144935 0.145081 0.14675 0.144935 0.146585 0.146907 0.148301 0.14675 0.148124 0.148301 0.149444 0.148124 0.149246 0.14675 0.148124 0.146585 0.14794 0.148124 0.149246 0.14794 0.149045 0.142939 0.144935 0.142797 0.144778 0.144935 0.146585 0.144778 0.146412 0.142797 0.144778 0.142642 0.144611 0.144778 0.146412 0.144611 0.146231 0.146585 0.14794 0.146412 0.14775 0.14794 0.149045 0.14775 0.148838 0.146412 0.14775 0.146231 0.147554 0.14775 0.148838 0.147554 0.148626 0.149444 0.150373 0.149246 0.150157 0.150373 0.151123 0.150157 0.15089 0.149246 0.150157 0.149045 0.149937 0.150157 0.15089 0.149937 0.150654 0.151123 0.151724 0.15089 0.151475 0.151724 0.152203 0.151475 0.15194 0.15089 0.151475 0.150654 0.151225 0.151475 0.15194 0.151225 0.151676 0.149045 0.149937 0.148838 0.149714 0.149937 0.150654 0.149714 0.150415 0.148838 0.149714 0.148626 0.149487 0.149714 0.150415 0.149487 0.150173 0.150654 0.151225 0.150415 0.150972 0.151225 0.151676 0.150972 0.15141 0.150415 0.150972 0.150173 0.150717 0.150972 0.15141 0.150717 0.151143 0.142642 0.144611 0.142476 0.144435 0.144611 0.146231 0.144435 0.146042 0.142476 0.144435 0.142299 0.144249 0.144435 0.146042 0.144249 0.145845 0.146231 0.147554 0.146042 0.147351 0.147554 0.148626 0.147351 0.148408 0.146042 0.147351 0.145845 0.147141 0.147351 0.148408 0.147141 0.148185 0.142299 0.144249 0.142111 0.144053 0.144249 0.145845 0.144053 0.14564 0.142111 0.144053 0.141912 0.143848 0.144053 0.14564 0.143848 0.145426 0.145845 0.147141 0.14564 0.146925 0.147141 0.148185 0.146925 0.147956 0.14564 0.146925 0.145426 0.146701 0.146925 0.147956 0.146701 0.147722 0.148626 0.149487 0.148408 0.149255 0.149487 0.150173 0.149255 0.149928 0.148408 0.149255 0.148185 0.149019 0.149255 0.149928 0.149019 0.149679 0.150173 0.150717 0.149928 0.150459 0.150717 0.151143 0.150459 0.150873 0.149928 0.150459 0.149679 0.150198 0.150459 0.150873 0.150198 0.150602 0.148185 0.149019 0.147956 0.148778 0.149019 0.149679 0.148778 0.149427 0.147956 0.148778 0.147722 0.148533 0.148778 0.149427 0.148533 0.14917 0.149679 0.150198 0.149427 0.149934 0.150198 0.150602 0.149934 0.150328 0.149427 0.149934 0.14917 0.149667 0.149934 0.150328 0.149667 0.150051 0.152203 0.152581 0.15194 0.152306 0.152581 0.152878 0.152306 0.152592 0.15194 0.152306 0.151676 0.15203 0.152306 0.152592 0.15203 0.152306 0.152878 0.15311 0.152592 0.152815 0.15311 0.153289 0.152815 0.152986 0.152592 0.152815 0.152306 0.15252 0.152815 0.152986 0.15252 0.152684 0.151676 0.15203 0.15141 0.151753 0.15203 0.152306 0.151753 0.152019 0.15141 0.151753 0.151143 0.151475 0.151753 0.152019 0.151475 0.151731 0.152306 0.15252 0.152019 0.152224 0.15252 0.152684 0.152224 0.15238 0.152019 0.152224 0.151731 0.151928 0.152224 0.15238 0.151928 0.152077 0.153289 0.153427 0.152986 0.153118 0.153427 0.153533 0.153118 0.153218 0.152986 0.153118 0.152684 0.152809 0.153118 0.153218 0.152809 0.152904 0.153533 0.153613 0.153218 0.153294 0.153613 0.153674 0.153294 0.153351 0.153218 0.153294 0.152904 0.152975 0.153294 0.153351 0.152975 0.153028 0.152684 0.152809 0.15238 0.152499 0.152809 0.152904 0.152499 0.152589 0.15238 0.152499 0.152077 0.15219 0.152499 0.152589 0.15219 0.152274 0.152904 0.152975 0.152589 0.152656 0.152975 0.153028 0.152656 0.152706 0.152589 0.152656 0.152274 0.152337 0.152656 0.152706 0.152337 0.152384 0.151143 0.151475 0.150873 0.151195 0.151475 0.151731 0.151195 0.151442 0.150873 0.151195 0.150602 0.150913 0.151195 0.151442 0.150913 0.151152 0.151731 0.151928 0.151442 0.151631 0.151928 0.152077 0.151631 0.151773 0.151442 0.151631 0.151152 0.151333 0.151631 0.151773 0.151333 0.151468 0.150602 0.150913 0.150328 0.15063 0.150913 0.151152 0.15063 0.15086 0.150328 0.15063 0.150051 0.150344 0.15063 0.15086 0.150344 0.150567 0.151152 0.151333 0.15086 0.151033 0.151333 0.151468 0.151033 0.151163 0.15086 0.151033 0.150567 0.150733 0.151033 0.151163 0.150733 0.150857 0.152077 0.15219 0.151773 0.15188 0.15219 0.152274 0.15188 0.15196 0.151773 0.15188 0.151468 0.15157 0.15188 0.15196 0.15157 0.151644 0.152274 0.152337 0.15196 0.152018 0.152337 0.152384 0.152018 0.152061 0.15196 0.152018 0.151644 0.151699 0.152018 0.152061 0.151699 0.151739 0.151468 0.15157 0.151163 0.151259 0.15157 0.151644 0.151259 0.151329 0.151163 0.151259 0.150857 0.150947 0.151259 0.151329 0.150947 0.151013 0.151644 0.151699 0.151329 0.15138 0.151699 0.151739 0.15138 0.151416 0.151329 0.15138 0.151013 0.15106 0.15138 0.151416 0.15106 0.151093 0 0.0162741 0 0.0161238 0.0162741 0.0318954 0.0161238 0.0315928 0 0.0161238 0 0.0159957 0.0161238 0.0315928 0.0159957 0.0313333 0.0318954 0.0468906 0.0315928 0.0464417 0.0468906 0.0610324 0.0464417 0.0604748 0.0315928 0.0464417 0.0313333 0.0460501 0.0464417 0.0604748 0.0460501 0.0599774 0 0.0159957 0 0.0158855 0.0159957 0.0313333 0.0158855 0.0311087 0 0.0158855 0 0.0157897 0.0158855 0.0311087 0.0157897 0.0309127 0.0313333 0.0460501 0.0311087 0.0457063 0.0460501 0.0599774 0.0457063 0.0595321 0.0311087 0.0457063 0.0309127 0.0454028 0.0457063 0.0595321 0.0454028 0.0591322 0.0610324 0.0740015 0.0604748 0.0733996 0.0740015 0.0855852 0.0733996 0.0850032 0.0604748 0.0733996 0.0599774 0.0728491 0.0733996 0.0850032 0.0728491 0.0844565 0.0855852 0.0957513 0.0850032 0.095229 0.0957513 0.104589 0.095229 0.10414 0.0850032 0.095229 0.0844565 0.0947258 0.095229 0.10414 0.0947258 0.103697 0.0599774 0.0728491 0.0595321 0.072345 0.0728491 0.0844565 0.072345 0.0839438 0.0595321 0.072345 0.0591322 0.071883 0.072345 0.0839438 0.071883 0.0834634 0.0844565 0.0947258 0.0839438 0.0942425 0.0947258 0.103697 0.0942425 0.103262 0.0839438 0.0942425 0.0834634 0.0937796 0.0942425 0.103262 0.0937796 0.102837 0 0.0157897 0 0.0157057 0.0157897 0.0309127 0.0157057 0.0307403 0 0.0157057 0 0.0156313 0.0157057 0.0307403 0.0156313 0.0305872 0.0309127 0.0454028 0.0307403 0.045133 0.0454028 0.0591322 0.045133 0.0587716 0.0307403 0.045133 0.0305872 0.0448917 0.045133 0.0587716 0.0448917 0.0584452 0 0.0156313 0 0.0155647 0.0156313 0.0305872 0.0155647 0.0304501 0 0.0155647 0 0.0155046 