# vtk DataFile Version 3.0
#This file was generated by the deal.II library on 2022/1/6 at 22:43:48
ASCII
DATASET UNSTRUCTURED_GRID

POINTS 16384 double
0 0 0
0.1875 0 0
0 0.046875 0
0.1875 0.046875 0
0.1875 0 0
0.375 0 0
0.1875 0.046875 0
0.375 0.046875 0
0 0.046875 0
0.1875 0.046875 0
0 0.09375 0
0.1875 0.09375 0
0.1875 0.046875 0
0.375 0.046875 0
0.1875 0.09375 0
0.375 0.09375 0
0.375 0 0
0.5625 0 0
0.375 0.046875 0
0.5625 0.046875 0
0.5625 0 0
0.75 0 0
0.5625 0.046875 0
0.75 0.046875 0
0.375 0.046875 0
0.5625 0.046875 0
0.375 0.09375 0
0.5625 0.09375 0
0.5625 0.046875 0
0.75 0.046875 0
0.5625 0.09375 0
0.75 0.09375 0
0 0.09375 0
0.1875 0.09375 0
0 0.140625 0
0.1875 0.140625 0
0.1875 0.09375 0
0.375 0.09375 0
0.1875 0.140625 0
0.375 0.140625 0
0 0.140625 0
0.1875 0.140625 0
0 0.1875 0
0.1875 0.1875 0
0.1875 0.140625 0
0.375 0.140625 0
0.1875 0.1875 0
0.375 0.1875 0
0.375 0.09375 0
0.5625 0.09375 0
0.375 0.140625 0
0.5625 0.140625 0
0.5625 0.09375 0
0.75 0.09375 0
0.5625 0.140625 0
0.75 0.140625 0
0.375 0.140625 0
0.5625 0.140625 0
0.375 0.1875 0
0.5625 0.1875 0
0.5625 0.140625 0
0.75 0.140625 0
0.5625 0.1875 0
0.75 0.1875 0
0.75 0 0
0.9375 0 0
0.75 0.046875 0
0.9375 0.046875 0
0.9375 0 0
1.125 0 0
0.9375 0.046875 0
1.125 0.046875 0
0.75 0.046875 0
0.9375 0.046875 0
0.75 0.09375 0
0.9375 0.09375 0
0.9375 0.046875 0
1.125 0.046875 0
0.9375 0.09375 0
1.125 0.09375 0
1.125 0 0
1.3125 0 0
1.125 0.046875 0
1.3125 0.046875 0
1.3125 0 0
1.5 0 0
1.3125 0.046875 0
1.5 0.046875 0
1.125 0.046875 0
1.3125 0.046875 0
1.125 0.09375 0
1.3125 0.09375 0
1.3125 0.046875 0
1.5 0.046875 0
1.3125 0.09375 0
1.5 0.09375 0
0.75 0.09375 0
0.9375 0.09375 0
0.75 0.140625 0
0.9375 0.140625 0
0.9375 0.09375 0
1.125 0.09375 0
0.9375 0.140625 0
1.125 0.140625 0
0.75 0.140625 0
0.9375 0.140625 0
0.75 0.1875 0
0.9375 0.1875 0
0.9375 0.140625 0
1.125 0.140625 0
0.9375 0.1875 0
1.125 0.1875 0
1.125 0.09375 0
1.3125 0.09375 0
1.125 0.140625 0
1.3125 0.140625 0
1.3125 0.09375 0
1.5 0.09375 0
1.3125 0.140625 0
1.5 0.140625 0
1.125 0.140625 0
1.3125 0.140625 0
1.125 0.1875 0
1.3125 0.1875 0
1.3125 0.140625 0
1.5 0.140625 0
1.3125 0.1875 0
1.5 0.1875 0
0 0.1875 0
0.1875 0.1875 0
0 0.234375 0
0.1875 0.234375 0
0.1875 0.1875 0
0.375 0.1875 0
0.1875 0.234375 0
0.375 0.234375 0
0 0.234375 0
0.1875 0.234375 0
0 0.28125 0
0.1875 0.28125 0
0.1875 0.234375 0
0.375 0.234375 0
0.1875 0.28125 0
0.375 0.28125 0
0.375 0.1875 0
0.5625 0.1875 0
0.375 0.234375 0
0.5625 0.234375 0
0.5625 0.1875 0
0.75 0.1875 0
0.5625 0.234375 0
0.75 0.234375 0
0.375 0.234375 0
0.5625 0.234375 0
0.375 0.28125 0
0.5625 0.28125 0
0.5625 0.234375 0
0.75 0.234375 0
0.5625 0.28125 0
0.75 0.28125 0
0 0.28125 0
0.1875 0.28125 0
0 0.328125 0
0.1875 0.328125 0
0.1875 0.28125 0
0.375 0.28125 0
0.1875 0.328125 0
0.375 0.328125 0
0 0.328125 0
0.1875 0.328125 0
0 0.375 0
0.1875 0.375 0
0.1875 0.328125 0
0.375 0.328125 0
0.1875 0.375 0
0.375 0.375 0
0.375 0.28125 0
0.5625 0.28125 0
0.375 0.328125 0
0.5625 0.328125 0
0.5625 0.28125 0
0.75 0.28125 0
0.5625 0.328125 0
0.75 0.328125 0
0.375 0.328125 0
0.5625 0.328125 0
0.375 0.375 0
0.5625 0.375 0
0.5625 0.328125 0
0.75 0.328125 0
0.5625 0.375 0
0.75 0.375 0
0.75 0.1875 0
0.9375 0.1875 0
0.75 0.234375 0
0.9375 0.234375 0
0.9375 0.1875 0
1.125 0.1875 0
0.9375 0.234375 0
1.125 0.234375 0
0.75 0.234375 0
0.9375 0.234375 0
0.75 0.28125 0
0.9375 0.28125 0
0.9375 0.234375 0
1.125 0.234375 0
0.9375 0.28125 0
1.125 0.28125 0
1.125 0.1875 0
1.3125 0.1875 0
1.125 0.234375 0
1.3125 0.234375 0
1.3125 0.1875 0
1.5 0.1875 0
1.3125 0.234375 0
1.5 0.234375 0
1.125 0.234375 0
1.3125 0.234375 0
1.125 0.28125 0
1.3125 0.28125 0
1.3125 0.234375 0
1.5 0.234375 0
1.3125 0.28125 0
1.5 0.28125 0
0.75 0.28125 0
0.9375 0.28125 0
0.75 0.328125 0
0.9375 0.328125 0
0.9375 0.28125 0
1.125 0.28125 0
0.9375 0.328125 0
1.125 0.328125 0
0.75 0.328125 0
0.9375 0.328125 0
0.75 0.375 0
0.9375 0.375 0
0.9375 0.328125 0
1.125 0.328125 0
0.9375 0.375 0
1.125 0.375 0
1.125 0.28125 0
1.3125 0.28125 0
1.125 0.328125 0
1.3125 0.328125 0
1.3125 0.28125 0
1.5 0.28125 0
1.3125 0.328125 0
1.5 0.328125 0
1.125 0.328125 0
1.3125 0.328125 0
1.125 0.375 0
1.3125 0.375 0
1.3125 0.328125 0
1.5 0.328125 0
1.3125 0.375 0
1.5 0.375 0
1.5 0 0
1.6875 0 0
1.5 0.046875 0
1.6875 0.046875 0
1.6875 0 0
1.875 0 0
1.6875 0.046875 0
1.875 0.046875 0
1.5 0.046875 0
1.6875 0.046875 0
1.5 0.09375 0
1.6875 0.09375 0
1.6875 0.046875 0
1.875 0.046875 0
1.6875 0.09375 0
1.875 0.09375 0
1.875 0 0
2.0625 0 0
1.875 0.046875 0
2.0625 0.046875 0
2.0625 0 0
2.25 0 0
2.0625 0.046875 0
2.25 0.046875 0
1.875 0.046875 0
2.0625 0.046875 0
1.875 0.09375 0
2.0625 0.09375 0
2.0625 0.046875 0
2.25 0.046875 0
2.0625 0.09375 0
2.25 0.09375 0
1.5 0.09375 0
1.6875 0.09375 0
1.5 0.140625 0
1.6875 0.140625 0
1.6875 0.09375 0
1.875 0.09375 0
1.6875 0.140625 0
1.875 0.140625 0
1.5 0.140625 0
1.6875 0.140625 0
1.5 0.1875 0
1.6875 0.1875 0
1.6875 0.140625 0
1.875 0.140625 0
1.6875 0.1875 0
1.875 0.1875 0
1.875 0.09375 0
2.0625 0.09375 0
1.875 0.140625 0
2.0625 0.140625 0
2.0625 0.09375 0
2.25 0.09375 0
2.0625 0.140625 0
2.25 0.140625 0
1.875 0.140625 0
2.0625 0.140625 0
1.875 0.1875 0
2.0625 0.1875 0
2.0625 0.140625 0
2.25 0.140625 0
2.0625 0.1875 0
2.25 0.1875 0
2.25 0 0
2.4375 0 0
2.25 0.046875 0
2.4375 0.046875 0
2.4375 0 0
2.625 0 0
2.4375 0.046875 0
2.625 0.046875 0
2.25 0.046875 0
2.4375 0.046875 0
2.25 0.09375 0
2.4375 0.09375 0
2.4375 0.046875 0
2.625 0.046875 0
2.4375 0.09375 0
2.625 0.09375 0
2.625 0 0
2.8125 0 0
2.625 0.046875 0
2.8125 0.046875 0
2.8125 0 0
3 0 0
2.8125 0.046875 0
3 0.046875 0
2.625 0.046875 0
2.8125 0.046875 0
2.625 0.09375 0
2.8125 0.09375 0
2.8125 0.046875 0
3 0.046875 0
2.8125 0.09375 0
3 0.09375 0
2.25 0.09375 0
2.4375 0.09375 0
2.25 0.140625 0
2.4375 0.140625 0
2.4375 0.09375 0
2.625 0.09375 0
2.4375 0.140625 0
2.625 0.140625 0
2.25 0.140625 0
2.4375 0.140625 0
2.25 0.1875 0
2.4375 0.1875 0
2.4375 0.140625 0
2.625 0.140625 0
2.4375 0.1875 0
2.625 0.1875 0
2.625 0.09375 0
2.8125 0.09375 0
2.625 0.140625 0
2.8125 0.140625 0
2.8125 0.09375 0
3 0.09375 0
2.8125 0.140625 0
3 0.140625 0
2.625 0.140625 0
2.8125 0.140625 0
2.625 0.1875 0
2.8125 0.1875 0
2.8125 0.140625 0
3 0.140625 0
2.8125 0.1875 0
3 0.1875 0
1.5 0.1875 0
1.6875 0.1875 0
1.5 0.234375 0
1.6875 0.234375 0
1.6875 0.1875 0
1.875 0.1875 0
1.6875 0.234375 0
1.875 0.234375 0
1.5 0.234375 0
1.6875 0.234375 0
1.5 0.28125 0
1.6875 0.28125 0
1.6875 0.234375 0
1.875 0.234375 0
1.6875 0.28125 0
1.875 0.28125 0
1.875 0.1875 0
2.0625 0.1875 0
1.875 0.234375 0
2.0625 0.234375 0
2.0625 0.1875 0
2.25 0.1875 0
2.0625 0.234375 0
2.25 0.234375 0
1.875 0.234375 0
2.0625 0.234375 0
1.875 0.28125 0
2.0625 0.28125 0
2.0625 0.234375 0
2.25 0.234375 0
2.0625 0.28125 0
2.25 0.28125 0
1.5 0.28125 0
1.6875 0.28125 0
1.5 0.328125 0
1.6875 0.328125 0
1.6875 0.28125 0
1.875 0.28125 0
1.6875 0.328125 0
1.875 0.328125 0
1.5 0.328125 0
1.6875 0.328125 0
1.5 0.375 0
1.6875 0.375 0
1.6875 0.328125 0
1.875 0.328125 0
1.6875 0.375 0
1.875 0.375 0
1.875 0.28125 0
2.0625 0.28125 0
1.875 0.328125 0
2.0625 0.328125 0
2.0625 0.28125 0
2.25 0.28125 0
2.0625 0.328125 0
2.25 0.328125 0
1.875 0.328125 0
2.0625 0.328125 0
1.875 0.375 0
2.0625 0.375 0
2.0625 0.328125 0
2.25 0.328125 0
2.0625 0.375 0
2.25 0.375 0
2.25 0.1875 0
2.4375 0.1875 0
2.25 0.234375 0
2.4375 0.234375 0
2.4375 0.1875 0
2.625 0.1875 0
2.4375 0.234375 0
2.625 0.234375 0
2.25 0.234375 0
2.4375 0.234375 0
2.25 0.28125 0
2.4375 0.28125 0
2.4375 0.234375 0
2.625 0.234375 0
2.4375 0.28125 0
2.625 0.28125 0
2.625 0.1875 0
2.8125 0.1875 0
2.625 0.234375 0
2.8125 0.234375 0
2.8125 0.1875 0
3 0.1875 0
2.8125 0.234375 0
3 0.234375 0
2.625 0.234375 0
2.8125 0.234375 0
2.625 0.28125 0
2.8125 0.28125 0
2.8125 0.234375 0
3 0.234375 0
2.8125 0.28125 0
3 0.28125 0
2.25 0.28125 0
2.4375 0.28125 0
2.25 0.328125 0
2.4375 0.328125 0
2.4375 0.28125 0
2.625 0.28125 0
2.4375 0.328125 0
2.625 0.328125 0
2.25 0.328125 0
2.4375 0.328125 0
2.25 0.375 0
2.4375 0.375 0
2.4375 0.328125 0
2.625 0.328125 0
2.4375 0.375 0
2.625 0.375 0
2.625 0.28125 0
2.8125 0.28125 0
2.625 0.328125 0
2.8125 0.328125 0
2.8125 0.28125 0
3 0.28125 0
2.8125 0.328125 0
3 0.328125 0
2.625 0.328125 0
2.8125 0.328125 0
2.625 0.375 0
2.8125 0.375 0
2.8125 0.328125 0
3 0.328125 0
2.8125 0.375 0
3 0.375 0
0 0.375 0
0.1875 0.375 0
0 0.421875 0
0.1875 0.421875 0
0.1875 0.375 0
0.375 0.375 0
0.1875 0.421875 0
0.375 0.421875 0
0 0.421875 0
0.1875 0.421875 0
0 0.46875 0
0.1875 0.46875 0
0.1875 0.421875 0
0.375 0.421875 0
0.1875 0.46875 0
0.375 0.46875 0
0.375 0.375 0
0.5625 0.375 0
0.375 0.421875 0
0.5625 0.421875 0
0.5625 0.375 0
0.75 0.375 0
0.5625 0.421875 0
0.75 0.421875 0
0.375 0.421875 0
0.5625 0.421875 0
0.375 0.46875 0
0.5625 0.46875 0
0.5625 0.421875 0
0.75 0.421875 0
0.5625 0.46875 0
0.75 0.46875 0
0 0.46875 0
0.1875 0.46875 0
0 0.515625 0
0.1875 0.515625 0
0.1875 0.46875 0
0.375 0.46875 0
0.1875 0.515625 0
0.375 0.515625 0
0 0.515625 0
0.1875 0.515625 0
0 0.5625 0
0.1875 0.5625 0
0.1875 0.515625 0
0.375 0.515625 0
0.1875 0.5625 0
0.375 0.5625 0
0.375 0.46875 0
0.5625 0.46875 0
0.375 0.515625 0
0.5625 0.515625 0
0.5625 0.46875 0
0.75 0.46875 0
0.5625 0.515625 0
0.75 0.515625 0
0.375 0.515625 0
0.5625 0.515625 0
0.375 0.5625 0
0.5625 0.5625 0
0.5625 0.515625 0
0.75 0.515625 0
0.5625 0.5625 0
0.75 0.5625 0
0.75 0.375 0
0.9375 0.375 0
0.75 0.421875 0
0.9375 0.421875 0
0.9375 0.375 0
1.125 0.375 0
0.9375 0.421875 0
1.125 0.421875 0
0.75 0.421875 0
0.9375 0.421875 0
0.75 0.46875 0
0.9375 0.46875 0
0.9375 0.421875 0
1.125 0.421875 0
0.9375 0.46875 0
1.125 0.46875 0
1.125 0.375 0
1.3125 0.375 0
1.125 0.421875 0
1.3125 0.421875 0
1.3125 0.375 0
1.5 0.375 0
1.3125 0.421875 0
1.5 0.421875 0
1.125 0.421875 0
1.3125 0.421875 0
1.125 0.46875 0
1.3125 0.46875 0
1.3125 0.421875 0
1.5 0.421875 0
1.3125 0.46875 0
1.5 0.46875 0
0.75 0.46875 0
0.9375 0.46875 0
0.75 0.515625 0
0.9375 0.515625 0
0.9375 0.46875 0
1.125 0.46875 0
0.9375 0.515625 0
1.125 0.515625 0
0.75 0.515625 0
0.9375 0.515625 0
[...]
POINT_DATA 16384
SCALARS x_displacement double 1
LOOKUP_TABLE default
0 0.0321234 0 0.0289118 0.0321234 0.0563332 0.0289118 0.0549962 0 0.0289118 0 0.0266968 0.0289118 0.0549962 0.0266968 0.0525188 0.0563332 0.0706498 0.0549962 0.0696702 0.0706498 0.0748939 0.0696702 0.0743707 0.0549962 0.0696702 0.0525188 0.0679621 0.0696702 0.0743707 0.0679621 0.0733765 0 0.0266968 0 0.0248525 0.0266968 0.0525188 0.0248525 0.0491975 0 0.0248525 0 0.023289 0.0248525 0.0491975 0.023289 0.0457758 0.0525188 0.0679621 0.0491975 0.0654309 0.0679621 0.0733765 0.0654309 0.0719504 0.0491975 0.0654309 0.0457758 0.061931 0.0654309 0.0719504 0.061931 0.0702267 0.0748939 0.0784503 0.0743707 0.0783393 0.0784503 0.0823395 0.0783393 0.0825115 0.0743707 0.0783393 0.0733765 0.0779696 0.0783393 0.0825115 0.0779696 0.0824883 0.0823395 0.0861617 0.0825115 0.0864167 0.0861617 0.0896158 0.0864167 0.0898767 0.0825115 0.0864167 0.0824883 0.0865379 0.0864167 0.0898767 0.0865379 0.0900404 0.0733765 0.0779696 0.0719504 0.0773831 0.0779696 0.0824883 0.0773831 0.0822986 0.0719504 0.0773831 0.0702267 0.0766277 0.0773831 0.0822986 0.0766277 0.0819646 0.0824883 0.0865379 0.0822986 0.0865349 0.0865379 0.0900404 0.0865349 0.0901136 0.0822986 0.0865349 0.0819646 0.0864219 0.0865349 0.0901136 0.0864219 0.0901029 0 0.023289 0 0.0219569 0.023289 0.0457758 0.0219569 0.0425518 0 0.0219569 0 0.0207784 0.0219569 0.0425518 0.0207784 0.0399989 0.0457758 0.061931 0.0425518 0.0583454 0.061931 0.0702267 0.0583454 0.068443 0.0425518 0.0583454 0.0399989 0.0554818 0.0583454 0.068443 0.0554818 0.0666371 0 0.0207784 0 0.0197824 0.0207784 0.0399989 0.0197824 0.0379766 0 0.0197824 0 0.0189615 0.0197824 0.0379766 0.0189615 0.036367 0.0399989 0.0554818 0.0379766 0.053199 0.0554818 0.0666371 0.053199 0.064938 0.0379766 0.053199 0.036367 0.051338 0.053199 0.064938 0.051338 0.0633963 0.0702267 0.0766277 0.068443 0.0757275 0.0766277 0.0819646 0.0757275 0.0815149 0.068443 0.0757275 0.0666371 0.074741 0.0757275 0.0815149 0.074741 0.0809714 0.0819646 0.0864219 0.0815149 0.0862123 0.0864219 0.0901029 0.0862123 0.0900161 0.0815149 0.0862123 0.0809714 0.0859202 0.0862123 0.0900161 0.0859202 0.0898612 0.0666371 0.074741 0.064938 0.0737026 0.074741 0.0809714 0.0737026 0.080359 0.064938 0.0737026 0.0633963 0.072655 0.0737026 0.080359 0.072655 0.0796976 0.0809714 0.0859202 0.080359 0.0855593 0.0859202 0.0898612 0.0855593 0.0896466 0.080359 0.0855593 0.0796976 0.0851431 0.0855593 0.0896466 0.0851431 0.0893806 0.0896158 0.0926121 0.0898767 0.0928378 0.0926121 0.0951465 0.0928378 0.0953147 0.0898767 0.0928378 0.0900404 0.092993 0.0928378 0.0953147 0.092993 0.0954324 0.0951465 0.0972514 0.0953147 0.0973521 0.0972514 0.0989754 0.0973521 0.0990064 0.0953147 0.0973521 0.0954324 0.0974178 0.0973521 0.0990064 0.0974178 0.0990144 0.0900404 0.092993 0.0901136 0.093081 0.092993 0.0954324 0.093081 0.0955015 0.0901136 0.093081 0.0901029 0.093106 0.093081 0.0955015 0.093106 0.0955238 0.0954324 0.0974178 0.0955015 0.0974491 0.0974178 0.0990144 0.0974491 0.0989993 0.0955015 0.0974491 0.0955238 0.097447 0.0974491 0.0989993 0.097447 0.098961 0.0989754 0.100372 0.0990064 0.100336 0.100372 0.101492 0.100336 0.101396 0.0990064 0.100336 0.0990144 0.100286 0.100336 0.101396 0.100286 0.101293 0.101492 0.102385 0.101396 0.102236 0.102385 0.103091 0.102236 0.102897 0.101396 0.102236 0.101293 0.102084 0.102236 0.102897 0.102084 0.102704 0.0990144 0.100286 0.0989993 0.100222 0.100286 0.101293 0.100222 0.101181 0.0989993 0.100222 0.098961 0.100143 0.100222 0.101181 0.100143 0.10106 0.101293 0.102084 0.101181 0.101929 0.102084 0.102704 0.101929 0.102511 0.101181 0.101929 0.10106 0.101769 0.101929 0.102511 0.101769 0.102316 0.0901029 0.093106 0.0900161 0.0930723 0.093106 0.0955238 0.0930723 0.0955019 0.0900161 0.0930723 0.0898612 0.0929847 0.0930723 0.0955019 0.0929847 0.0954385 0.0955238 0.097447 0.0955019 0.0974123 0.097447 0.098961 0.0974123 0.0988998 0.0955019 0.0974123 0.0954385 0.0973467 0.0974123 0.0988998 0.0973467 0.0988162 0.0898612 0.0929847 0.0896466 0.0928482 0.0929847 0.0954385 0.0928482 0.0953364 0.0896466 0.0928482 0.0893806 0.0926678 0.0928482 0.0953364 0.0926678 0.0951988 0.0954385 0.0973467 0.0953364 0.0972515 0.0973467 0.0988162 0.0972515 0.0987109 0.0953364 0.0972515 0.0951988 0.0971286 0.0972515 0.0987109 0.0971286 0.0985846 0.098961 0.100143 0.0988998 0.100049 0.100143 0.10106 0.100049 0.10093 0.0988998 0.100049 0.0988162 0.0999386 0.100049 0.10093 0.0999386 0.10079 0.10106 0.101769 0.10093 0.101605 0.101769 0.102316 0.101605 0.102119 0.10093 0.101605 0.10079 0.101434 0.101605 0.102119 0.101434 0.10192 0.0988162 0.0999386 0.0987109 0.0998132 0.0999386 0.10079 0.0998132 0.10064 0.0987109 0.0998132 0.0985846 0.0996727 0.0998132 0.10064 0.0996727 0.100479 0.10079 0.101434 0.10064 0.101257 0.101434 0.10192 0.101257 0.101716 0.10064 0.101257 0.100479 0.101073 0.101257 0.101716 0.101073 0.101509 0 0.0189615 0 0.0182931 0.0189615 0.036367 0.0182931 0.035077 0 0.0182931 0 0.0177514 0.0182931 0.035077 0.0177514 0.0340361 0.036367 0.051338 0.035077 0.0498007 0.051338 0.0633963 0.0498007 0.0620183 0.035077 0.0498007 0.0340361 0.0485195 0.0498007 0.0620183 0.0485195 0.0607949 0 0.0177514 0 0.0173122 0.0177514 0.0340361 0.0173122 0.0331901 0 0.0173122 0 0.0169548 0.0173122 0.0331901 0.0169548 0.0324975 0.0340361 0.0485195 0.0331901 0.0474441 0.0485195 0.0607949 0.0474441 0.059712 0.0331901 0.0474441 0.0324975 0.046536 0.0474441 0.059712 0.046536 0.0587543 0.0633963 0.072655 0.0620183 0.0716318 0.072655 0.0796976 0.0716318 0.0790065 0.0620183 0.0716318 0.0607949 0.0706539 0.0716318 0.0790065 0.0706539 0.078303 0.0796976 0.0851431 0.0790065 0.0846841 0.0851431 0.0893806 0.0846841 0.0890711 0.0790065 0.0846841 0.078303 0.0841936 0.0846841 0.0890711 0.0841936 0.0887259 0.0607949 0.0706539 0.059712 0.069733 0.0706539 0.078303 0.069733 0.0776015 0.059712 0.069733 0.0587543 0.0688742 0.069733 0.0776015 0.0688742 0.076913 0.078303 0.0841936 0.0776015 0.083682 0.0841936 0.0887259 0.083682 0.0883522 0.0776015 0.083682 0.076913 0.0831582 0.083682 0.0883522 0.0831582 0.0879566 0 0.0169548 0 0.0166624 0.0169548 0.0324975 0.0166624 0.0319263 0 0.0166624 0 0.0164213 0.0166624 0.0319263 0.0164213 0.0314515 0.0324975 0.046536 0.0319263 0.0457647 0.046536 0.0587543 0.0457647 0.0579072 0.0319263 0.0457647 0.0314515 0.0451058 0.0457647 0.0579072 0.0451058 0.057157 0 0.0164213 0 0.0162211 0.0164213 0.0314515 0.0162211 0.0310536 0 0.0162211 0 0.0160533 0.0162211 0.0310536 0.0160533 0.0307174 0.0314515 0.0451058 0.0310536 0.0445397 0.0451058 0.057157 0.0445397 0.0564913 0.0310536 0.0445397 0.0307174 0.0440505 0.0445397 0.0564913 0.0440505 0.0558992 0.0587543 0.0688742 0.0579072 0.0680785 0.0688742 0.076913 0.0680785 0.0762452 0.0579072 0.0680785 0.057157 0.0673445 0.0680785 0.0762452 0.0673445 0.0756034 0.076913 0.0831582 0.0762452 0.08263 0.0831582 0.0879566 0.08263 0.0875451 0.0762452 0.08263 0.0756034 0.0821037 0.08263 0.0875451 0.0821037 0.087123 0.057157 0.0673445 0.0564913 0.0666692 0.0673445 0.0756034 0.0666692 0.0749908 0.0564913 0.0666692 0.0558992 0.0660489 0.0666692 0.0749908 0.0660489 0.0744091 0.0756034 0.0821037 0.0749908 0.0815844 0.0821037 0.087123 0.0815844 0.0866951 0.0749908 0.0815844 0.0744091 0.0810761 0.0815844 0.0866951 0.0810761 0.0862652 0.0893806 0.0926678 0.0890711 0.0924487 0.0926678 0.0951988 0.0924487 0.0950289 0.0890711 0.0924487 0.0887259 0.0921959 0.0924487 0.0950289 0.0921959 0.0948297 0.0951988 0.0971286 0.0950289 0.0969797 0.0971286 0.0985846 0.0969797 0.0984384 0.0950289 0.0969797 0.0948297 0.0968069 0.0969797 0.0984384 0.0968069 0.0982733 0.0887259 0.0921959 0.0883522 0.0919143 0.0921959 0.0948297 0.0919143 0.0946046 0.0883522 0.0919143 0.0879566 0.0916085 0.0919143 0.0946046 0.0916085 0.0943566 0.0948297 0.0968069 0.0946046 0.0966122 0.0968069 0.0982733 0.0966122 0.0980905 0.0946046 0.0966122 0.0943566 0.0963975 0.0966122 0.0980905 0.0963975 0.097891 0.0985846 0.0996727 0.0984384 0.0995173 0.0996727 0.100479 0.0995173 0.100308 0.0984384 0.0995173 0.0982733 0.0993476 0.0995173 0.100308 0.0993476 0.100126 0.100479 0.101073 0.100308 0.100882 0.101073 0.101509 0.100882 0.101298 0.100308 0.100882 0.100126 0.100684 0.100882 0.101298 0.100684 0.101081 0.0982733 0.0993476 0.0980905 0.0991641 0.0993476 0.100126 0.0991641 0.0999335 0.0980905 0.0991641 0.097891 0.0989674 0.0991641 0.0999335 0.0989674 0.0997312 0.100126 0.100684 0.0999335 0.100478 0.100684 0.101081 0.100478 0.10086 0.0999335 0.100478 0.0997312 0.100265 0.100478 0.10086 0.100265 0.100633 0.0879566 0.0916085 0.0875451 0.0912829 0.0916085 0.0943566 0.0912829 0.0940888 0.0875451 0.0912829 0.087123 0.0909415 0.0912829 0.0940888 0.0909415 0.0938041 0.0943566 0.0963975 0.0940888 0.0961648 0.0963975 0.097891 0.0961648 0.0976763 0.0940888 0.0961648 0.0938041 0.0959161 0.0961648 0.0976763 0.0959161 0.0974475 0.087123 0.0909415 0.0866951 0.0905881 0.0909415 0.0938041 0.0905881 0.0935052 0.0866951 0.0905881 0.0862652 0.0902259 0.0905881 0.0935052 0.0902259 0.0931946 0.0938041 0.0959161 0.0935052 0.0956534 0.0959161 0.0974475 0.0956534 0.0972059 0.0935052 0.0956534 0.0931946 0.0953784 0.0956534 0.0972059 0.0953784 0.0969527 0.097891 0.0989674 0.0976763 0.0987582 0.0989674 0.0997312 0.0987582 0.099519 0.0976763 0.0987582 0.0974475 0.0985373 0.0987582 0.099519 0.0985373 0.0992973 0.0997312 0.100265 0.099519 0.100044 0.100265 0.100633 0.100044 0.100401 0.099519 0.100044 0.0992973 0.0998162 0.100044 0.100401 0.0998162 0.100163 0.0974475 0.0985373 0.0972059 0.0983052 0.0985373 0.0992973 0.0983052 0.0990664 0.0972059 0.0983052 0.0969527 0.0980629 0.0983052 0.0990664 0.0980629 0.0988268 0.0992973 0.0998162 0.0990664 0.0995808 0.0998162 0.100163 0.0995808 0.0999191 0.0990664 0.0995808 0.0988268 0.0993382 0.0995808 0.0999191 0.0993382 0.0996697 0.103091 0.103647 0.102897 0.103416 0.103647 0.104081 0.103416 0.103821 0.102897 0.103416 0.102704 0.103188 0.103416 0.103821 0.103188 0.103566 0.104081 0.104419 0.103821 0.104137 0.104419 0.104681 0.104137 0.104381 0.103821 0.104137 0.103566 0.103859 0.104137 0.104381 0.103859 0.104085 0.102704 0.103188 0.102511 0.102962 0.103188 0.103566 0.102962 0.103313 0.102511 0.102962 0.102316 0.102737 0.102962 0.103313 0.102737 0.103062 0.103566 0.103859 0.103313 0.103584 0.103859 0.104085 0.103584 0.103794 0.103313 0.103584 0.103062 0.103312 0.103584 0.103794 0.103312 0.103505 0.104681 0.104881 0.104381 0.104569 0.104881 0.105034 0.104569 0.104713 0.104381 0.104569 0.104085 0.10426 0.104569 0.104713 0.10426 0.104395 0.105034 0.10515 0.104713 0.104822 0.10515 0.105236 0.104822 0.104904 0.104713 0.104822 0.104395 0.104497 0.104822 0.104904 0.104497 0.104574 0.104085 0.10426 0.103794 0.103956 0.10426 0.104395 0.103956 0.10408 0.103794 0.103956 0.103505 0.103654 0.103956 0.10408 0.103654 0.103768 0.104395 0.104497 0.10408 0.104175 0.104497 0.104574 0.104175 0.104247 0.10408 0.104175 0.103768 0.103855 0.104175 0.104247 0.103855 0.103922 0.102316 0.102737 0.102119 0.102512 0.102737 0.103062 0.102512 0.102812 0.102119 0.102512 0.10192 0.102286 0.102512 0.102812 0.102286 0.102563 0.103062 0.103312 0.102812 0.103042 0.103312 0.103505 0.103042 0.103219 0.102812 0.103042 0.102563 0.102774 0.103042 0.103219 0.102774 0.102934 0.10192 0.102286 0.101716 0.102059 0.102286 0.102563 0.102059 0.102314 0.101716 0.102059 0.101509 0.101829 0.102059 0.102314 0.101829 0.102065 0.102563 0.102774 0.102314 0.102506 0.102774 0.102934 0.102506 0.102651 0.102314 0.102506 0.102065 0.102239 0.102506 0.102651 0.102239 0.102369 0.103505 0.103654 0.103219 0.103354 0.103654 0.103768 0.103354 0.103458 0.103219 0.103354 0.102934 0.103057 0.103354 0.103458 0.103057 0.10315 0.103768 0.103855 0.103458 0.103538 0.103855 0.103922 0.103538 0.103599 0.103458 0.103538 0.10315 0.103222 0.103538 0.103599 0.103222 0.103277 0.102934 0.103057 0.102651 0.102761 0.103057 0.10315 0.102761 0.102844 0.102651 0.102761 0.102369 0.102466 0.102761 0.102844 0.102466 0.10254 0.10315 0.103222 0.102844 0.102908 0.103222 0.103277 0.102908 0.102957 0.102844 0.102908 0.10254 0.102595 0.102908 0.102957 0.102595 0.102638 0.105236 0.1053 0.104904 0.104965 0.1053 0.105346 0.104965 0.10501 0.104904 0.104965 0.104574 0.104632 0.104965 0.10501 0.104632 0.104675 0.105346 0.105379 0.10501 0.105042 0.105379 0.105402 0.105042 0.105064 0.10501 0.105042 0.104675 0.104706 0.105042 0.105064 0.104706 0.104728 0.104574 0.104632 0.104247 0.104301 0.104632 0.104675 0.104301 0.104341 0.104247 0.104301 0.103922 0.103972 0.104301 0.104341 0.103972 0.10401 0.104675 0.104706 0.104341 0.104371 0.104706 0.104728 0.104371 0.104392 0.104341 0.104371 0.10401 0.104037 0.104371 0.104392 0.104037 0.104057 0.105402 0.105418 0.105064 0.10508 0.105418 0.105428 0.10508 0.105091 0.105064 0.10508 0.104728 0.104743 0.10508 0.105091 0.104743 0.104754 0.105428 0.105434 0.105091 0.105097 0.105434 0.105438 0.105097 0.105101 0.105091 0.105097 0.104754 0.10476 0.105097 0.105101 0.10476 0.104765 0.104728 0.104743 0.104392 0.104407 0.104743 0.104754 0.104407 0.104417 0.104392 0.104407 0.104057 0.104071 0.104407 0.104417 0.104071 0.104081 0.104754 0.10476 0.104417 0.104424 0.10476 0.104765 0.104424 0.104428 0.104417 0.104424 0.104081 0.104088 0.104424 0.104428 0.104088 0.104092 0.103922 0.103972 0.103599 0.103644 0.103972 0.10401 0.103644 0.103679 0.103599 0.103644 0.103277 0.103318 0.103644 0.103679 0.103318 0.103349 0.10401 0.104037 0.103679 0.103704 0.104037 0.104057 0.103704 0.103723 0.103679 0.103704 0.103349 0.103373 0.103704 0.103723 0.103373 0.10339 0.103277 0.103318 0.102957 0.102993 0.103318 0.103349 0.102993 0.103021 0.102957 0.102993 0.102638 0.10267 0.102993 0.103021 0.10267 0.102694 0.103349 0.103373 0.103021 0.103042 0.103373 0.10339 0.103042 0.103057 0.103021 0.103042 0.102694 0.102712 0.103042 0.103057 0.102712 0.102725 0.104057 0.104071 0.103723 0.103736 0.104071 0.104081 0.103736 0.103746 0.103723 0.103736 0.10339 0.103402 0.103736 0.103746 0.103402 0.103411 0.104081 0.104088 0.103746 0.103752 0.104088 0.104092 0.103752 0.103756 0.103746 0.103752 0.103411 0.103416 0.103752 0.103756 0.103416 0.10342 0.10339 0.103402 0.103057 0.103068 0.103402 0.103411 0.103068 0.103076 0.103057 0.103068 0.102725 0.102735 0.103068 0.103076 0.102735 0.102742 0.103411 0.103416 0.103076 0.103081 0.103416 0.10342 0.103081 0.103085 0.103076 0.103081 0.102742 0.102746 0.103081 0.103085 0.102746 0.10275 0.101509 0.101829 0.101298 0.101598 0.101829 0.102065 0.101598 0.101815 0.101298 0.101598 0.101081 0.101363 0.101598 0.101815 0.101363 0.101563 0.102065 0.102239 0.101815 0.101972 0.102239 0.102369 0.101972 0.102088 0.101815 0.101972 0.101563 0.101705 0.101972 0.102088 0.101705 0.101806 0.101081 0.101363 0.10086 0.101125 0.101363 0.101563 0.101125 0.101309 0.10086 0.101125 0.100633 0.100884 0.101125 0.101309 0.100884 0.101053 0.101563 0.101705 0.101309 0.101436 0.101705 0.101806 0.101436 0.101525 0.101309 0.101436 0.101053 0.101166 0.101436 0.101525 0.101166 0.101242 0.102369 0.102466 0.102088 0.102173 0.102466 0.10254 0.102173 0.102236 0.102088 0.102173 0.101806 0.10188 0.102173 0.102236 0.10188 0.101933 0.10254 0.102595 0.102236 0.102284 0.102595 0.102638 0.102284 0.10232 0.102236 0.102284 0.101933 0.101973 0.102284 0.10232 0.101973 0.102002 0.101806 0.10188 0.101525 0.101587 0.10188 0.101933 0.101587 0.101631 0.101525 0.101587 0.101242 0.101294 0.101587 0.101631 0.101294 0.101329 0.101933 0.101973 0.101631 0.101663 0.101973 0.102002 0.101663 0.101686 0.101631 0.101663 0.101329 0.101353 0.101663 0.101686 0.101353 0.10137 0.100633 0.100884 0.100401 0.100638 0.100884 0.101053 0.100638 0.100794 0.100401 0.100638 0.100163 0.100389 0.100638 0.100794 0.100389 0.100532 0.101053 0.101166 0.100794 0.100895 0.101166 0.101242 0.100895 0.100959 0.100794 0.100895 0.100532 0.100621 0.100895 0.100959 0.100621 0.100675 0.100163 0.100389 0.0999191 0.100135 0.100389 0.100532 0.100135 0.100268 0.0999191 0.100135 0.0996697 0.0998766 0.100135 0.100268 0.0998766 0.0999994 0.100532 0.100621 0.100268 0.100346 0.100621 0.100675 0.100346 0.100389 0.100268 0.100346 0.0999994 0.100067 0.100346 0.100389 0.100067 0.100101 0.101242 0.101294 0.100959 0.101 0.101294 0.101329 0.101 0.101026 0.100959 0.101 0.100675 0.100706 0.101 0.101026 0.100706 0.100723 0.101329 0.101353 0.101026 0.101043 0.101353 0.10137 0.101043 0.101054 0.101026 0.101043 0.100723 0.100733 0.101043 0.101054 0.100733 0.100738 0.100675 0.100706 0.100389 0.100411 0.100706 0.100723 0.100411 0.10042 0.100389 0.100411 0.100101 0.100114 0.100411 0.10042 0.100114 0.100116 0.100723 0.100733 0.10042 0.100423 0.100733 0.100738 0.100423 0.100422 0.10042 0.100423 0.100116 0.100112 0.100423 0.100422 0.100112 0.100106 0.102638 0.10267 0.10232 0.102347 0.10267 0.102694 0.102347 0.102367 0.10232 0.102347 0.102002 0.102024 0.102347 0.102367 0.102024 0.102041 0.102694 0.102712 0.102367 0.102382 0.102712 0.102725 0.102382 0.102393 0.102367 0.102382 0.102041 0.102053 0.102382 0.102393 0.102053 0.102062 0.102002 0.102024 0.101686 0.101703 0.102024 0.102041 0.101703 0.101715 0.101686 0.101703 0.10137 0.101382 0.101703 0.101715 0.101382 0.10139 0.102041 0.102053 0.101715 0.101725 0.102053 0.102062 0.101725 0.101732 0.101715 0.101725 0.10139 0.101397 0.101725 0.101732 0.101397 0.101402 0.102725 0.102735 0.102393 0.102402 0.102735 0.102742 0.102402 0.102408 0.102393 0.102402 0.102062 0.102069 0.102402 0.102408 0.102069 0.102074 0.102742 0.102746 0.102408 0.102412 0.102746 0.10275 0.102412 0.102415 0.102408 0.102412 0.102074 0.102077 0.102412 0.102415 0.102077 0.10208 0.102062 0.102069 0.101732 0.101737 0.102069 0.102074 0.101737 0.101741 0.101732 0.101737 0.101402 0.101405 0.101737 0.101741 0.101405 0.101408 0.102074 0.102077 0.101741 0.101743 0.102077 0.10208 0.101743 0.101745 0.101741 0.101743 0.101408 0.101409 0.101743 0.101745 0.101409 0.101411 0.10137 0.101382 0.101054 0.101061 0.101382 0.10139 0.101061 0.101066 0.101054 0.101061 0.100738 0.10074 0.101061 0.101066 0.10074 0.100741 0.10139 0.101397 0.101066 0.101069 0.101397 0.101402 0.101069 0.101072 0.101066 0.101069 0.100741 0.100742 0.101069 0.101072 0.100742 0.100742 0.100738 0.10074 0.100422 0.100419 0.10074 0.100741 0.100419 0.100417 0.100422 0.100419 0.100106 0.100099 0.100419 0.100417 0.100099 0.100092 0.100741 0.100742 0.100417 0.100414 0.100742 0.100742 0.100414 0.100412 0.100417 0.100414 0.100092 0.100087 0.100414 0.100412 0.100087 0.100083 0.101402 0.101405 0.101072 0.101073 0.101405 0.101408 0.101073 0.101075 0.101072 0.101073 0.100742 0.100742 0.101073 0.101075 0.100742 0.100742 0.101408 0.101409 0.101075 0.101076 0.101409 0.101411 0.101076 0.101076 0.101075 0.101076 0.100742 0.100742 0.101076 0.101076 0.100742 0.100742 0.100742 0.100742 0.100412 0.10041 0.100742 0.100742 0.10041 0.100409 0.100412 0.10041 0.100083 0.100079 0.10041 0.100409 0.100079 0.100077 0.100742 0.100742 0.100409 0.100408 0.100742 0.100742 0.100408 0.100408 0.100409 0.100408 0.100077 0.100075 0.100408 0.100408 0.100075 0.100074 0 0.0160533 0 0.0159114 0.0160533 0.0307174 0.0159114 0.0304309 0 0.0159114 0 0.0157902 0.0159114 0.0304309 0.0157902 0.0301846 0.0307174 0.0440505 0.0304309 0.0436252 0.0440505 0.0558992 0.0436252 0.055371 0.0304309 0.0436252 0.0301846 0.0432531 0.0436252 0.055371 0.0432531 0.0548984 0 0.0157902 0 0.0156857 0.0157902 0.0301846 0.0156857 0.0299709 0 0.0156857 0 0.0155947 0.0156857 0.0299709 0.0155947 0.0297838 0.0301846 0.0432531 0.0299709 0.0429255 0.0432531 0.0548984 0.0429255 0.054474 0.0299709 0.0429255 0.0297838 0.0426352 0.0429255 0.054474 0.0426352 0.0540914 0.0558992 0.0660489 0.055371 0.0654794 0.0660489 0.0744091 0.0654794 0.0738588 0.055371 0.0654794 0.0548984 0.0649566 0.0654794 0.0738588 0.0649566 0.0733396 0.0744091 0.0810761 0.0738588 0.0805814 0.0810761 0.0862652 0.0805814 0.0858367 0.0738588 0.0805814 0.0733396 0.0801025 0.0805814 0.0858367 0.0801025 0.0854123 0.0548984 0.0649566 0.054474 0.0644761 0.0649566 0.0733396 0.0644761 0.0728507 0.054474 0.0644761 0.0540914 0.0640341 0.0644761 0.0728507 0.0640341 0.0723909 0.0733396 0.0801025 0.0728507 0.0796406 0.0801025 