# vtk DataFile Version 3.0
#This file was generated by the deal.II library on 2022/1/6 at 22:42:09
ASCII
DATASET UNSTRUCTURED_GRID

POINTS 16384 double
0 0 0
0.1875 0 0
0 0.046875 0
0.1875 0.046875 0
0.1875 0 0
0.375 0 0
0.1875 0.046875 0
0.375 0.046875 0
0 0.046875 0
0.1875 0.046875 0
0 0.09375 0
0.1875 0.09375 0
0.1875 0.046875 0
0.375 0.046875 0
0.1875 0.09375 0
0.375 0.09375 0
0.375 0 0
0.5625 0 0
0.375 0.046875 0
0.5625 0.046875 0
0.5625 0 0
0.75 0 0
0.5625 0.046875 0
0.75 0.046875 0
0.375 0.046875 0
0.5625 0.046875 0
0.375 0.09375 0
0.5625 0.09375 0
0.5625 0.046875 0
0.75 0.046875 0
0.5625 0.09375 0
0.75 0.09375 0
0 0.09375 0
0.1875 0.09375 0
0 0.140625 0
0.1875 0.140625 0
0.1875 0.09375 0
0.375 0.09375 0
0.1875 0.140625 0
0.375 0.140625 0
0 0.140625 0
0.1875 0.140625 0
0 0.1875 0
0.1875 0.1875 0
0.1875 0.140625 0
0.375 0.140625 0
0.1875 0.1875 0
0.375 0.1875 0
0.375 0.09375 0
0.5625 0.09375 0
0.375 0.140625 0
0.5625 0.140625 0
0.5625 0.09375 0
0.75 0.09375 0
0.5625 0.140625 0
0.75 0.140625 0
0.375 0.140625 0
0.5625 0.140625 0
0.375 0.1875 0
0.5625 0.1875 0
0.5625 0.140625 0
0.75 0.140625 0
0.5625 0.1875 0
0.75 0.1875 0
0.75 0 0
0.9375 0 0
0.75 0.046875 0
0.9375 0.046875 0
0.9375 0 0
1.125 0 0
0.9375 0.046875 0
1.125 0.046875 0
0.75 0.046875 0
0.9375 0.046875 0
0.75 0.09375 0
0.9375 0.09375 0
0.9375 0.046875 0
1.125 0.046875 0
0.9375 0.09375 0
1.125 0.09375 0
1.125 0 0
1.3125 0 0
1.125 0.046875 0
1.3125 0.046875 0
1.3125 0 0
1.5 0 0
1.3125 0.046875 0
1.5 0.046875 0
1.125 0.046875 0
1.3125 0.046875 0
1.125 0.09375 0
1.3125 0.09375 0
1.3125 0.046875 0
1.5 0.046875 0
1.3125 0.09375 0
1.5 0.09375 0
0.75 0.09375 0
0.9375 0.09375 0
0.75 0.140625 0
0.9375 0.140625 0
0.9375 0.09375 0
1.125 0.09375 0
0.9375 0.140625 0
1.125 0.140625 0
0.75 0.140625 0
0.9375 0.140625 0
0.75 0.1875 0
0.9375 0.1875 0
0.9375 0.140625 0
1.125 0.140625 0
0.9375 0.1875 0
1.125 0.1875 0
1.125 0.09375 0
1.3125 0.09375 0
1.125 0.140625 0
1.3125 0.140625 0
1.3125 0.09375 0
1.5 0.09375 0
1.3125 0.140625 0
1.5 0.140625 0
1.125 0.140625 0
1.3125 0.140625 0
1.125 0.1875 0
1.3125 0.1875 0
1.3125 0.140625 0
1.5 0.140625 0
1.3125 0.1875 0
1.5 0.1875 0
0 0.1875 0
0.1875 0.1875 0
0 0.234375 0
0.1875 0.234375 0
0.1875 0.1875 0
0.375 0.1875 0
0.1875 0.234375 0
0.375 0.234375 0
0 0.234375 0
0.1875 0.234375 0
0 0.28125 0
0.1875 0.28125 0
0.1875 0.234375 0
0.375 0.234375 0
0.1875 0.28125 0
0.375 0.28125 0
0.375 0.1875 0
0.5625 0.1875 0
0.375 0.234375 0
0.5625 0.234375 0
0.5625 0.1875 0
0.75 0.1875 0
0.5625 0.234375 0
0.75 0.234375 0
0.375 0.234375 0
0.5625 0.234375 0
0.375 0.28125 0
0.5625 0.28125 0
0.5625 0.234375 0
0.75 0.234375 0
0.5625 0.28125 0
0.75 0.28125 0
0 0.28125 0
0.1875 0.28125 0
0 0.328125 0
0.1875 0.328125 0
0.1875 0.28125 0
0.375 0.28125 0
0.1875 0.328125 0
0.375 0.328125 0
0 0.328125 0
0.1875 0.328125 0
0 0.375 0
0.1875 0.375 0
0.1875 0.328125 0
0.375 0.328125 0
0.1875 0.375 0
0.375 0.375 0
0.375 0.28125 0
0.5625 0.28125 0
0.375 0.328125 0
0.5625 0.328125 0
0.5625 0.28125 0
0.75 0.28125 0
0.5625 0.328125 0
0.75 0.328125 0
0.375 0.328125 0
0.5625 0.328125 0
0.375 0.375 0
0.5625 0.375 0
0.5625 0.328125 0
0.75 0.328125 0
0.5625 0.375 0
0.75 0.375 0
0.75 0.1875 0
0.9375 0.1875 0
0.75 0.234375 0
0.9375 0.234375 0
0.9375 0.1875 0
1.125 0.1875 0
0.9375 0.234375 0
1.125 0.234375 0
0.75 0.234375 0
0.9375 0.234375 0
0.75 0.28125 0
0.9375 0.28125 0
0.9375 0.234375 0
1.125 0.234375 0
0.9375 0.28125 0
1.125 0.28125 0
1.125 0.1875 0
1.3125 0.1875 0
1.125 0.234375 0
1.3125 0.234375 0
1.3125 0.1875 0
1.5 0.1875 0
1.3125 0.234375 0
1.5 0.234375 0
1.125 0.234375 0
1.3125 0.234375 0
1.125 0.28125 0
1.3125 0.28125 0
1.3125 0.234375 0
1.5 0.234375 0
1.3125 0.28125 0
1.5 0.28125 0
0.75 0.28125 0
0.9375 0.28125 0
0.75 0.328125 0
0.9375 0.328125 0
0.9375 0.28125 0
1.125 0.28125 0
0.9375 0.328125 0
1.125 0.328125 0
0.75 0.328125 0
0.9375 0.328125 0
0.75 0.375 0
0.9375 0.375 0
0.9375 0.328125 0
1.125 0.328125 0
0.9375 0.375 0
1.125 0.375 0
1.125 0.28125 0
1.3125 0.28125 0
1.125 0.328125 0
1.3125 0.328125 0
1.3125 0.28125 0
1.5 0.28125 0
1.3125 0.328125 0
1.5 0.328125 0
1.125 0.328125 0
1.3125 0.328125 0
1.125 0.375 0
1.3125 0.375 0
1.3125 0.328125 0
1.5 0.328125 0
1.3125 0.375 0
1.5 0.375 0
1.5 0 0
1.6875 0 0
1.5 0.046875 0
1.6875 0.046875 0
1.6875 0 0
1.875 0 0
1.6875 0.046875 0
1.875 0.046875 0
1.5 0.046875 0
1.6875 0.046875 0
1.5 0.09375 0
1.6875 0.09375 0
1.6875 0.046875 0
1.875 0.046875 0
1.6875 0.09375 0
1.875 0.09375 0
1.875 0 0
2.0625 0 0
1.875 0.046875 0
2.0625 0.046875 0
2.0625 0 0
2.25 0 0
2.0625 0.046875 0
2.25 0.046875 0
1.875 0.046875 0
2.0625 0.046875 0
1.875 0.09375 0
2.0625 0.09375 0
2.0625 0.046875 0
2.25 0.046875 0
2.0625 0.09375 0
2.25 0.09375 0
1.5 0.09375 0
1.6875 0.09375 0
1.5 0.140625 0
1.6875 0.140625 0
1.6875 0.09375 0
1.875 0.09375 0
1.6875 0.140625 0
1.875 0.140625 0
1.5 0.140625 0
1.6875 0.140625 0
1.5 0.1875 0
1.6875 0.1875 0
1.6875 0.140625 0
1.875 0.140625 0
1.6875 0.1875 0
1.875 0.1875 0
1.875 0.09375 0
2.0625 0.09375 0
1.875 0.140625 0
2.0625 0.140625 0
2.0625 0.09375 0
2.25 0.09375 0
2.0625 0.140625 0
2.25 0.140625 0
1.875 0.140625 0
2.0625 0.140625 0
1.875 0.1875 0
2.0625 0.1875 0
2.0625 0.140625 0
2.25 0.140625 0
2.0625 0.1875 0
2.25 0.1875 0
2.25 0 0
2.4375 0 0
2.25 0.046875 0
2.4375 0.046875 0
2.4375 0 0
2.625 0 0
2.4375 0.046875 0
2.625 0.046875 0
2.25 0.046875 0
2.4375 0.046875 0
2.25 0.09375 0
2.4375 0.09375 0
2.4375 0.046875 0
2.625 0.046875 0
2.4375 0.09375 0
2.625 0.09375 0
2.625 0 0
2.8125 0 0
2.625 0.046875 0
2.8125 0.046875 0
2.8125 0 0
3 0 0
2.8125 0.046875 0
3 0.046875 0
2.625 0.046875 0
2.8125 0.046875 0
2.625 0.09375 0
2.8125 0.09375 0
2.8125 0.046875 0
3 0.046875 0
2.8125 0.09375 0
3 0.09375 0
2.25 0.09375 0
2.4375 0.09375 0
2.25 0.140625 0
2.4375 0.140625 0
2.4375 0.09375 0
2.625 0.09375 0
2.4375 0.140625 0
2.625 0.140625 0
2.25 0.140625 0
2.4375 0.140625 0
2.25 0.1875 0
2.4375 0.1875 0
2.4375 0.140625 0
2.625 0.140625 0
2.4375 0.1875 0
2.625 0.1875 0
2.625 0.09375 0
2.8125 0.09375 0
2.625 0.140625 0
2.8125 0.140625 0
2.8125 0.09375 0
3 0.09375 0
2.8125 0.140625 0
3 0.140625 0
2.625 0.140625 0
2.8125 0.140625 0
2.625 0.1875 0
2.8125 0.1875 0
2.8125 0.140625 0
3 0.140625 0
2.8125 0.1875 0
3 0.1875 0
1.5 0.1875 0
1.6875 0.1875 0
1.5 0.234375 0
1.6875 0.234375 0
1.6875 0.1875 0
1.875 0.1875 0
1.6875 0.234375 0
1.875 0.234375 0
1.5 0.234375 0
1.6875 0.234375 0
1.5 0.28125 0
1.6875 0.28125 0
1.6875 0.234375 0
1.875 0.234375 0
1.6875 0.28125 0
1.875 0.28125 0
1.875 0.1875 0
2.0625 0.1875 0
1.875 0.234375 0
2.0625 0.234375 0
2.0625 0.1875 0
2.25 0.1875 0
2.0625 0.234375 0
2.25 0.234375 0
1.875 0.234375 0
2.0625 0.234375 0
1.875 0.28125 0
2.0625 0.28125 0
2.0625 0.234375 0
2.25 0.234375 0
2.0625 0.28125 0
2.25 0.28125 0
1.5 0.28125 0
1.6875 0.28125 0
1.5 0.328125 0
1.6875 0.328125 0
1.6875 0.28125 0
1.875 0.28125 0
1.6875 0.328125 0
1.875 0.328125 0
1.5 0.328125 0
1.6875 0.328125 0
1.5 0.375 0
1.6875 0.375 0
1.6875 0.328125 0
1.875 0.328125 0
1.6875 0.375 0
1.875 0.375 0
1.875 0.28125 0
2.0625 0.28125 0
1.875 0.328125 0
2.0625 0.328125 0
2.0625 0.28125 0
2.25 0.28125 0
2.0625 0.328125 0
2.25 0.328125 0
1.875 0.328125 0
2.0625 0.328125 0
1.875 0.375 0
2.0625 0.375 0
2.0625 0.328125 0
2.25 0.328125 0
2.0625 0.375 0
2.25 0.375 0
2.25 0.1875 0
2.4375 0.1875 0
2.25 0.234375 0
2.4375 0.234375 0
2.4375 0.1875 0
2.625 0.1875 0
2.4375 0.234375 0
2.625 0.234375 0
2.25 0.234375 0
2.4375 0.234375 0
2.25 0.28125 0
2.4375 0.28125 0
2.4375 0.234375 0
2.625 0.234375 0
2.4375 0.28125 0
2.625 0.28125 0
2.625 0.1875 0
2.8125 0.1875 0
2.625 0.234375 0
2.8125 0.234375 0
2.8125 0.1875 0
3 0.1875 0
2.8125 0.234375 0
3 0.234375 0
2.625 0.234375 0
2.8125 0.234375 0
2.625 0.28125 0
2.8125 0.28125 0
2.8125 0.234375 0
3 0.234375 0
2.8125 0.28125 0
3 0.28125 0
2.25 0.28125 0
2.4375 0.28125 0
2.25 0.328125 0
2.4375 0.328125 0
2.4375 0.28125 0
2.625 0.28125 0
2.4375 0.328125 0
2.625 0.328125 0
2.25 0.328125 0
2.4375 0.328125 0
2.25 0.375 0
2.4375 0.375 0
2.4375 0.328125 0
2.625 0.328125 0
2.4375 0.375 0
2.625 0.375 0
2.625 0.28125 0
2.8125 0.28125 0
2.625 0.328125 0
2.8125 0.328125 0
2.8125 0.28125 0
3 0.28125 0
2.8125 0.328125 0
3 0.328125 0
2.625 0.328125 0
2.8125 0.328125 0
2.625 0.375 0
2.8125 0.375 0
2.8125 0.328125 0
3 0.328125 0
2.8125 0.375 0
3 0.375 0
0 0.375 0
0.1875 0.375 0
0 0.421875 0
0.1875 0.421875 0
0.1875 0.375 0
0.375 0.375 0
0.1875 0.421875 0
0.375 0.421875 0
0 0.421875 0
0.1875 0.421875 0
0 0.46875 0
0.1875 0.46875 0
0.1875 0.421875 0
0.375 0.421875 0
0.1875 0.46875 0
0.375 0.46875 0
0.375 0.375 0
0.5625 0.375 0
0.375 0.421875 0
0.5625 0.421875 0
0.5625 0.375 0
0.75 0.375 0
0.5625 0.421875 0
0.75 0.421875 0
0.375 0.421875 0
0.5625 0.421875 0
0.375 0.46875 0
0.5625 0.46875 0
0.5625 0.421875 0
0.75 0.421875 0
0.5625 0.46875 0
0.75 0.46875 0
0 0.46875 0
0.1875 0.46875 0
0 0.515625 0
0.1875 0.515625 0
0.1875 0.46875 0
0.375 0.46875 0
0.1875 0.515625 0
0.375 0.515625 0
0 0.515625 0
0.1875 0.515625 0
0 0.5625 0
0.1875 0.5625 0
0.1875 0.515625 0
0.375 0.515625 0
0.1875 0.5625 0
0.375 0.5625 0
0.375 0.46875 0
0.5625 0.46875 0
0.375 0.515625 0
0.5625 0.515625 0
0.5625 0.46875 0
0.75 0.46875 0
0.5625 0.515625 0
0.75 0.515625 0
0.375 0.515625 0
0.5625 0.515625 0
0.375 0.5625 0
0.5625 0.5625 0
0.5625 0.515625 0
0.75 0.515625 0
0.5625 0.5625 0
0.75 0.5625 0
0.75 0.375 0
0.9375 0.375 0
0.75 0.421875 0
0.9375 0.421875 0
0.9375 0.375 0
1.125 0.375 0
0.9375 0.421875 0
1.125 0.421875 0
0.75 0.421875 0
0.9375 0.421875 0
0.75 0.46875 0
0.9375 0.46875 0
0.9375 0.421875 0
1.125 0.421875 0
0.9375 0.46875 0
1.125 0.46875 0
1.125 0.375 0
1.3125 0.375 0
1.125 0.421875 0
1.3125 0.421875 0
1.3125 0.375 0
1.5 0.375 0
1.3125 0.421875 0
1.5 0.421875 0
1.125 0.421875 0
1.3125 0.421875 0
1.125 0.46875 0
1.3125 0.46875 0
1.3125 0.421875 0
1.5 0.421875 0
1.3125 0.46875 0
1.5 0.46875 0
0.75 0.46875 0
0.9375 0.46875 0
0.75 0.515625 0
0.9375 0.515625 0
0.9375 0.46875 0
1.125 0.46875 0
0.9375 0.515625 0
1.125 0.515625 0
0.75 0.515625 0
0.9375 0.515625 0
[...]
POINT_DATA 16384
SCALARS x_displacement double 1
LOOKUP_TABLE default
0 0.0317712 0 0.0286452 0.0317712 0.0556289 0.0286452 0.0543704 0 0.0286452 0 0.0264851 0.0286452 0.0543704 0.0264851 0.0519606 0.0556289 0.0695119 0.0543704 0.0686036 0.0695119 0.0732459 0.0686036 0.0727796 0.0543704 0.0686036 0.0519606 0.0669568 0.0686036 0.0727796 0.0669568 0.0718356 0 0.0264851 0 0.0246786 0.0264851 0.0519606 0.0246786 0.0486939 0 0.0246786 0 0.0231424 0.0246786 0.0486939 0.0231424 0.0453158 0.0519606 0.0669568 0.0486939 0.0644783 0.0669568 0.0718356 0.0644783 0.0704537 0.0486939 0.0644783 0.0453158 0.0610231 0.0644783 0.0704537 0.0610231 0.0687684 0.0732459 0.0762325 0.0727796 0.0761607 0.0762325 0.0795156 0.0761607 0.0797082 0.0727796 0.0761607 0.0718356 0.0758265 0.0761607 0.0797082 0.0758265 0.0797044 0.0795156 0.0827205 0.0797082 0.0829783 0.0827205 0.0855699 0.0829783 0.0858179 0.0797082 0.0829783 0.0797044 0.0831031 0.0829783 0.0858179 0.0831031 0.0859712 0.0718356 0.0758265 0.0704537 0.0752719 0.0758265 0.0797044 0.0752719 0.0795327 0.0704537 0.0752719 0.0687684 0.074545 0.0752719 0.0795327 0.074545 0.0792155 0.0797044 0.0831031 0.0795327 0.0831044 0.0831031 0.0859712 0.0831044 0.0860361 0.0795327 0.0831044 0.0792155 0.0829961 0.0831044 0.0860361 0.0829961 0.086019 0 0.0231424 0 0.0218307 0.0231424 0.0453158 0.0218307 0.0421261 0 0.0218307 0 0.0206675 0.0218307 0.0421261 0.0206675 0.0396004 0.0453158 0.0610231 0.0421261 0.0574751 0.0610231 0.0687684 0.0574751 0.067018 0.0421261 0.0574751 0.0396004 0.0546428 0.0574751 0.067018 0.0546428 0.0652407 0 0.0206675 0 0.0196834 0.0206675 0.0396004 0.0196834 0.0375996 0 0.0196834 0 0.0188716 0.0196834 0.0375996 0.0188716 0.0360069 0.0396004 0.0546428 0.0375996 0.0523858 0.0546428 0.0652407 0.0523858 0.0635661 0.0375996 0.0523858 0.0360069 0.0505459 0.0523858 0.0635661 0.0505459 0.0620452 0.0687684 0.074545 0.067018 0.07367 0.074545 0.0792155 0.07367 0.0787811 0.067018 0.07367 0.0652407 0.0727058 0.07367 0.0787811 0.0727058 0.0782515 0.0792155 0.0829961 0.0787811 0.0827914 0.0829961 0.086019 0.0827914 0.0859273 0.0787811 0.0827914 0.0782515 0.0825043 0.0827914 0.0859273 0.0825043 0.0857687 0.0652407 0.0727058 0.0635661 0.071687 0.0727058 0.0782515 0.071687 0.0776517 0.0635661 0.071687 0.0620452 0.0706564 0.071687 0.0776517 0.0706564 0.0770017 0.0782515 0.0825043 0.0776517 0.0821483 0.0825043 0.0857687 0.0821483 0.0855514 0.0776517 0.0821483 0.0770017 0.0817369 0.0821483 0.0855514 0.0817369 0.0852835 0.0855699 0.0879943 0.0858179 0.0881944 0.0879943 0.0900046 0.0881944 0.0901381 0.0858179 0.0881944 0.0859712 0.0883277 0.0881944 0.0901381 0.0883277 0.0902254 0.0900046 0.0916428 0.0901381 0.0917032 0.0916428 0.0929621 0.0917032 0.0929507 0.0901381 0.0917032 0.0902254 0.0917333 0.0917032 0.0929507 0.0917333 0.0929206 0.0859712 0.0883277 0.0860361 0.088397 0.0883277 0.0902254 0.088397 0.0902679 0.0860361 0.088397 0.086019 0.0884061 0.088397 0.0902679 0.0884061 0.0902671 0.0902254 0.0917333 0.0902679 0.0917329 0.0917333 0.0929206 0.0917329 0.0928712 0.0902679 0.0917329 0.0902671 0.0917027 0.0917329 0.0928712 0.0917027 0.0928021 0.0929621 0.0940158 0.0929507 0.0939382 0.0940158 0.0948524 0.0939382 0.0947169 0.0929507 0.0939382 0.0929206 0.0938506 0.0939382 0.0947169 0.0938506 0.0945774 0.0948524 0.0955141 0.0947169 0.0953297 0.0955141 0.0960355 0.0953297 0.0958113 0.0947169 0.0953297 0.0945774 0.0951453 0.0953297 0.0958113 0.0951453 0.0955894 0.0929206 0.0938506 0.0928712 0.0937518 0.0938506 0.0945774 0.0937518 0.0944325 0.0928712 0.0937518 0.0928021 0.0936411 0.0937518 0.0944325 0.0936411 0.0942815 0.0945774 0.0951453 0.0944325 0.0949596 0.0951453 0.0955894 0.0949596 0.095369 0.0944325 0.0949596 0.0942815 0.0947716 0.0949596 0.095369 0.0947716 0.0951488 0.086019 0.0884061 0.0859273 0.088359 0.0884061 0.0902671 0.088359 0.0902251 0.0859273 0.088359 0.0857687 0.0882601 0.088359 0.0902251 0.0882601 0.0901441 0.0902671 0.0917027 0.0902251 0.0916432 0.0917027 0.0928021 0.0916432 0.0927133 0.0902251 0.0916432 0.0901441 0.0915555 0.0916432 0.0927133 0.0915555 0.092605 0.0857687 0.0882601 0.0855514 0.088114 0.0882601 0.0901441 0.088114 0.0900269 0.0855514 0.088114 0.0852835 0.0879257 0.088114 0.0900269 0.0879257 0.0898762 0.0901441 0.0915555 0.0900269 0.091441 0.0915555 0.092605 0.091441 0.0924776 0.0900269 0.091441 0.0898762 0.0913009 0.091441 0.0924776 0.0913009 0.0923315 0.0928021 0.0936411 0.0927133 0.093518 0.0936411 0.0942815 0.093518 0.0941234 0.0927133 0.093518 0.092605 0.0933822 0.093518 0.0941234 0.0933822 0.0939576 0.0942815 0.0947716 0.0941234 0.0945805 0.0947716 0.0951488 0.0945805 0.0949281 0.0941234 0.0945805 0.0939576 0.0943855 0.0945805 0.0949281 0.0943855 0.0947061 0.092605 0.0933822 0.0924776 0.0932334 0.0933822 0.0939576 0.0932334 0.0937837 0.0924776 0.0932334 0.0923315 0.0930716 0.0932334 0.0937837 0.0930716 0.0936014 0.0939576 0.0943855 0.0937837 0.0941859 0.0943855 0.0947061 0.0941859 0.0944821 0.0937837 0.0941859 0.0936014 0.0939812 0.0941859 0.0944821 0.0939812 0.0942554 0 0.0188716 0 0.0182105 0.0188716 0.0360069 0.0182105 0.0347304 0 0.0182105 0 0.0176744 0.0182105 0.0347304 0.0176744 0.0337001 0.0360069 0.0505459 0.0347304 0.0490258 0.0505459 0.0620452 0.0490258 0.0606846 0.0347304 0.0490258 0.0337001 0.0477586 0.0490258 0.0606846 0.0477586 0.0594758 0 0.0176744 0 0.0172397 0.0176744 0.0337001 0.0172397 0.0328625 0 0.0172397 0 0.0168857 0.0172397 0.0328625 0.0168857 0.0321765 0.0337001 0.0477586 0.0328625 0.0466946 0.0477586 0.0594758 0.0466946 0.058405 0.0328625 0.0466946 0.0321765 0.0457955 0.0466946 0.058405 0.0457955 0.0574573 0.0620452 0.0706564 0.0606846 0.0696479 0.0706564 0.0770017 0.0696479 0.0763206 0.0606846 0.0696479 0.0594758 0.0686826 0.0696479 0.0763206 0.0686826 0.0756261 0.0770017 0.0817369 0.0763206 0.0812824 0.0817369 0.0852835 0.0812824 0.0849728 0.0763206 0.0812824 0.0756261 0.0807962 0.0812824 0.0849728 0.0807962 0.0846268 0.0594758 0.0686826 0.058405 0.0677725 0.0686826 0.0756261 0.0677725 0.0749325 0.058405 0.0677725 0.0574573 0.0669228 0.0677725 0.0749325 0.0669228 0.0742509 0.0756261 0.0807962 0.0749325 0.0802885 0.0807962 0.0846268 0.0802885 0.0842528 0.0749325 0.0802885 0.0742509 0.0797683 0.0802885 0.0842528 0.0797683 0.0838572 0 0.0168857 0 0.016596 0.0168857 0.0321765 0.016596 0.0316105 0 0.016596 0 0.016357 0.016596 0.0316105 0.016357 0.0311397 0.0321765 0.0457955 0.0316105 0.0450314 0.0457955 0.0574573 0.0450314 0.0566184 0.0316105 0.0450314 0.0311397 0.0443782 0.0450314 0.0566184 0.0443782 0.0558749 0 0.016357 0 0.0161584 0.016357 0.0311397 0.0161584 0.0307449 0 0.0161584 0 0.0159918 0.0161584 0.0307449 0.0159918 0.030411 0.0311397 0.0443782 0.0307449 0.0438166 0.0443782 0.0558749 0.0438166 0.0552146 0.0307449 0.0438166 0.030411 0.0433309 0.0438166 0.0552146 0.0433309 0.0546267 0.0574573 0.0669228 0.0566184 0.0661349 0.0669228 0.0742509 0.0661349 0.073589 0.0566184 0.0661349 0.0558749 0.0654074 0.0661349 0.073589 0.0654074 0.0729524 0.0742509 0.0797683 0.073589 0.0792435 0.0797683 0.0838572 0.0792435 0.0834459 0.073589 0.0792435 0.0729524 0.0787202 0.0792435 0.0834459 0.0787202 0.0830242 0.0558749 0.0654074 0.0552146 0.0647375 0.0654074 0.0729524 0.0647375 0.0723442 0.0552146 0.0647375 0.0546267 0.0641216 0.0647375 0.0723442 0.0641216 0.0717663 0.0729524 0.0787202 0.0723442 0.0782037 0.0787202 0.0830242 0.0782037 0.0825967 0.0723442 0.0782037 0.0717663 0.0776977 0.0782037 0.0825967 0.0776977 0.0821673 0.0852835 0.0879257 0.0849728 0.0876999 0.0879257 0.0898762 0.0876999 0.0896949 0.0849728 0.0876999 0.0846268 0.0874416 0.0876999 0.0896949 0.0874416 0.089486 0.0898762 0.0913009 0.0896949 0.0911371 0.0913009 0.0923315 0.0911371 0.0921677 0.0896949 0.0911371 0.089486 0.0909511 0.0911371 0.0921677 0.0909511 0.0919869 0.0846268 0.0874416 0.0842528 0.0871554 0.0874416 0.089486 0.0871554 0.0892524 0.0842528 0.0871554 0.0838572 0.0868458 0.0871554 0.0892524 0.0868458 0.0889973 0.089486 0.0909511 0.0892524 0.0907447 0.0909511 0.0919869 0.0907447 0.0917901 0.0892524 0.0907447 0.0889973 0.0905199 0.0907447 0.0917901 0.0905199 0.0915783 0.0923315 0.0930716 0.0921677 0.0928972 0.0930716 0.0936014 0.0928972 0.0934104 0.0921677 0.0928972 0.0919869 0.0927102 0.0928972 0.0934104 0.0927102 0.0932106 0.0936014 0.0939812 0.0934104 0.093771 0.0939812 0.0942554 0.093771 0.0940256 0.0934104 0.093771 0.0932106 0.0935551 0.093771 0.0940256 0.0935551 0.0937923 0.0919869 0.0927102 0.0917901 0.0925112 0.0927102 0.0932106 0.0925112 0.0930022 0.0917901 0.0925112 0.0915783 0.0923006 0.0925112 0.0930022 0.0923006 0.092785 0.0932106 0.0935551 0.0930022 0.0933331 0.0935551 0.0937923 0.0933331 0.0935551 0.0930022 0.0933331 0.092785 0.0931049 0.0933331 0.0935551 0.0931049 0.0933137 0.0838572 0.0868458 0.0834459 0.0865172 0.0868458 0.0889973 0.0865172 0.0887233 0.0834459 0.0865172 0.0830242 0.0861733 0.0865172 0.0887233 0.0861733 0.0884333 0.0889973 0.0905199 0.0887233 0.0902784 0.0905199 0.0915783 0.0902784 0.0913525 0.0887233 0.0902784 0.0884333 0.090022 0.0902784 0.0913525 0.090022 0.091114 0.0830242 0.0861733 0.0825967 0.0858179 0.0861733 0.0884333 0.0858179 0.0881299 0.0825967 0.0858179 0.0821673 0.0854541 0.0858179 0.0881299 0.0854541 0.0878155 0.0884333 0.090022 0.0881299 0.0897525 0.090022 0.091114 0.0897525 0.0908638 0.0881299 0.0897525 0.0878155 0.0894717 0.0897525 0.0908638 0.0894717 0.090603 0.0915783 0.0923006 0.0913525 0.0920789 0.0923006 0.092785 0.0920789 0.0925594 0.0913525 0.0920789 0.091114 0.0918467 0.0920789 0.0925594 0.0918467 0.0923256 0.092785 0.0931049 0.0925594 0.0928706 0.0931049 0.0933137 0.0928706 0.0930679 0.0925594 0.0928706 0.0923256 0.0926299 0.0928706 0.0930679 0.0926299 0.0928175 0.091114 0.0918467 0.0908638 0.0916046 0.0918467 0.0923256 0.0916046 0.0920837 0.0908638 0.0916046 0.090603 0.0913533 0.0916046 0.0920837 0.0913533 0.0918342 0.0923256 0.0926299 0.0920837 0.092383 0.0926299 0.0928175 0.092383 0.0925624 0.0920837 0.092383 0.0918342 0.09213 0.092383 0.0925624 0.09213 0.0923026 0.0960355 0.0964452 0.0958113 0.0961893 0.0964452 0.0967659 0.0961893 0.0964856 0.0958113 0.0961893 0.0955894 0.0959373 0.0961893 0.0964856 0.0959373 0.0962098 0.0967659 0.0970158 0.0964856 0.0967172 0.0970158 0.0972092 0.0967172 0.0968973 0.0964856 0.0967172 0.0962098 0.0964231 0.0967172 0.0968973 0.0964231 0.0965895 0.0955894 0.0959373 0.095369 0.0956881 0.0959373 0.0962098 0.0956881 0.0959375 0.095369 0.0956881 0.0951488 0.0954408 0.0956881 0.0959375 0.0954408 0.095668 0.0962098 0.0964231 0.0959375 0.0961327 0.0964231 0.0965895 0.0961327 0.0962853 0.0959375 0.0961327 0.095668 0.0958455 0.0961327 0.0962853 0.0958455 0.0959843 0.0972092 0.0973579 0.0968973 0.0970364 0.0973579 0.097471 0.0970364 0.0971429 0.0968973 0.0970364 0.0965895 0.0967186 0.0970364 0.0971429 0.0967186 0.0968181 0.097471 0.0975561 0.0971429 0.0972237 0.0975561 0.0976192 0.0972237 0.0972841 0.0971429 0.0972237 0.0968181 0.096894 0.0972237 0.0972841 0.096894 0.0969511 0.0965895 0.0967186 0.0962853 0.0964042 0.0967186 0.0968181 0.0964042 0.0964961 0.0962853 0.0964042 0.0959843 0.0960926 0.0964042 0.0964961 0.0960926 0.0961767 0.0968181 0.096894 0.0964961 0.0965667 0.096894 0.0969511 0.0965667 0.0966201 0.0964961 0.0965667 0.0961767 0.0962415 0.0965667 0.0966201 0.0962415 0.096291 0.0951488 0.0954408 0.0949281 0.0951946 0.0954408 0.095668 0.0951946 0.0954005 0.0949281 0.0951946 0.0947061 0.0949488 0.0951946 0.0954005 0.0949488 0.0951345 0.095668 0.0958455 0.0954005 0.0955607 0.0958455 0.0959843 0.0955607 0.0956858 0.0954005 0.0955607 0.0951345 0.095278 0.0955607 0.0956858 0.095278 0.0953895 0.0947061 0.0949488 0.0944821 0.0947027 0.0949488 0.0951345 0.0947027 0.0948693 0.0944821 0.0947027 0.0942554 0.0944557 0.0947027 0.0948693 0.0944557 0.0946042 0.0951345 0.095278 0.0948693 0.0949966 0.095278 0.0953895 0.0949966 0.0950949 0.0948693 0.0949966 0.0946042 0.0947161 0.0949966 0.0950949 0.0947161 0.0948015 0.0959843 0.0960926 0.0956858 0.0957835 0.0960926 0.0961767 0.0957835 0.0958595 0.0956858 0.0957835 0.0953895 0.0954765 0.0957835 0.0958595 0.0954765 0.0955443 0.0961767 0.0962415 0.0958595 0.0959184 0.0962415 0.096291 0.0959184 0.0959634 0.0958595 0.0959184 0.0955443 0.0955969 0.0959184 0.0959634 0.0955969 0.0956374 0.0953895 0.0954765 0.0950949 0.0951713 0.0954765 0.0955443 0.0951713 0.0952308 0.0950949 0.0951713 0.0948015 0.0948674 0.0951713 0.0952308 0.0948674 0.0949186 0.0955443 0.0955969 0.0952308 0.095277 0.0955969 0.0956374 0.095277 0.0953126 0.0952308 0.095277 0.0949186 0.0949583 0.095277 0.0953126 0.0949583 0.0949889 0.0976192 0.0976653 0.0972841 0.0973286 0.0976653 0.0976983 0.0973286 0.0973608 0.0972841 0.0973286 0.0969511 0.0969936 0.0973286 0.0973608 0.0969936 0.0970246 0.0976983 0.0977214 0.0973608 0.0973836 0.0977214 0.0977371 0.0973836 0.0973993 0.0973608 0.0973836 0.0970246 0.0970467 0.0973836 0.0973993 0.0970467 0.0970622 0.0969511 0.0969936 0.0966201 0.0966601 0.0969936 0.0970246 0.0966601 0.0966896 0.0966201 0.0966601 0.096291 0.0963282 0.0966601 0.0966896 0.0963282 0.0963557 0.0970246 0.0970467 0.0966896 0.0967108 0.0970467 0.0970622 0.0967108 0.0967258 0.0966896 0.0967108 0.0963557 0.0963758 0.0967108 0.0967258 0.0963758 0.0963901 0.0977371 0.0977474 0.0973993 0.0974098 0.0977474 0.0977538 0.0974098 0.0974164 0.0973993 0.0974098 0.0970622 0.0970727 0.0974098 0.0974164 0.0970727 0.0970795 0.0977538 0.0977574 0.0974164 0.0974204 0.0977574 0.0977592 0.0974204 0.0974225 0.0974164 0.0974204 0.0970795 0.0970836 0.0974204 0.0974225 0.0970836 0.097086 0.0970622 0.0970727 0.0967258 0.0967361 0.0970727 0.0970795 0.0967361 0.0967429 0.0967258 0.0967361 0.0963901 0.0964 0.0967361 0.0967429 0.0964 0.0964067 0.0970795 0.0970836 0.0967429 0.0967472 0.0970836 0.097086 0.0967472 0.0967497 0.0967429 0.0967472 0.0964067 0.0964109 0.0967472 0.0967497 0.0964109 0.0964135 0.096291 0.0963282 0.0959634 0.0959975 0.0963282 0.0963557 0.0959975 0.096023 0.0959634 0.0959975 0.0956374 0.0956681 0.0959975 0.096023 0.0956681 0.0956912 0.0963557 0.0963758 0.096023 0.0960416 0.0963758 0.0963901 0.0960416 0.096055 0.096023 0.0960416 0.0956912 0.0957082 0.0960416 0.096055 0.0957082 0.0957206 0.0956374 0.0956681 0.0953126 0.0953398 0.0956681 0.0956912 0.0953398 0.0953603 0.0953126 0.0953398 0.0949889 0.0950124 0.0953398 0.0953603 0.0950124 0.0950302 0.0956912 0.0957082 0.0953603 0.0953756 0.0957082 0.0957206 0.0953756 0.0953867 0.0953603 0.0953756 0.0950302 0.0950435 0.0953756 0.0953867 0.0950435 0.0950533 0.0963901 0.0964 0.096055 0.0960644 0.0964 0.0964067 0.0960644 0.0960708 0.096055 0.0960644 0.0957206 0.0957293 0.0960644 0.0960708 0.0957293 0.0957353 0.0964067 0.0964109 0.0960708 0.096075 0.0964109 0.0964135 0.096075 0.0960776 0.0960708 0.096075 0.0957353 0.0957393 0.096075 0.0960776 0.0957393 0.0957418 0.0957206 0.0957293 0.0953867 0.0953946 0.0957293 0.0957353 0.0953946 0.0954001 0.0953867 0.0953946 0.0950533 0.0950603 0.0953946 0.0954001 0.0950603 0.0950652 0.0957353 0.0957393 0.0954001 0.0954038 0.0957393 0.0957418 0.0954038 0.0954061 0.0954001 0.0954038 0.0950652 0.0950685 0.0954038 0.0954061 0.0950685 0.0950707 0.0942554 0.0944557 0.0940256 0.0942073 0.0944557 0.0946042 0.0942073 0.0943389 0.0940256 0.0942073 0.0937923 0.0939569 0.0942073 0.0943389 0.0939569 0.0940728 0.0946042 0.0947161 0.0943389 0.094436 0.0947161 0.0948015 0.094436 0.094509 0.0943389 0.094436 0.0940728 0.094156 0.094436 0.094509 0.094156 0.094217 0.0937923 0.0939569 0.0935551 0.0937043 0.0939569 0.0940728 0.0937043 0.0938056 0.0935551 0.0937043 0.0933137 0.093449 0.0937043 0.0938056 0.093449 0.0935369 0.0940728 0.094156 0.0938056 0.0938756 0.094156 0.094217 0.0938756 0.0939251 0.0938056 0.0938756 0.0935369 0.0935945 0.0938756 0.0939251 0.0935945 0.093633 0.0948015 0.0948674 0.094509 0.0945646 0.0948674 0.0949186 0.0945646 0.0946075 0.094509 0.0945646 0.094217 0.0942626 0.0945646 0.0946075 0.0942626 0.0942972 0.0949186 0.0949583 0.0946075 0.0946406 0.0949583 0.0949889 0.0946406 0.0946662 0.0946075 0.0946406 0.0942972 0.0943238 0.0946406 0.0946662 0.0943238 0.0943443 0.094217 0.0942626 0.0939251 0.093961 0.0942626 0.0942972 0.093961 0.0939876 0.0939251 0.093961 0.093633 0.0936595 0.093961 0.0939876 0.0936595 0.0936783 0.0942972 0.0943238 0.0939876 0.0940077 0.0943238 0.0943443 0.0940077 0.094023 0.0939876 0.0940077 0.0936783 0.093692 0.0940077 0.094023 0.093692 0.0937022 0.0933137 0.093449 0.0930679 0.0931908 0.093449 0.0935369 0.0931908 0.0932663 0.0930679 0.0931908 0.0928175 0.0929293 0.0931908 0.0932663 0.0929293 0.0929935 0.0935369 0.0935945 0.0932663 0.0933123 0.0935945 0.093633 0.0933123 0.0933404 0.0932663 0.0933123 0.0929935 0.0930287 0.0933123 0.0933404 0.0930287 0.0930471 0.0928175 0.0929293 0.0925624 0.0926645 0.0929293 0.0929935 0.0926645 0.0927183 0.0925624 0.0926645 0.0923026 0.092396 0.0926645 0.0927183 0.092396 0.0924405 0.0929935 0.0930287 0.0927183 0.0927436 0.0930287 0.0930471 0.0927436 0.0927527 0.0927183 0.0927436 0.0924405 0.0924565 0.0927436 0.0927527 0.0924565 0.092457 0.093633 0.0936595 0.0933404 0.0933579 0.0936595 0.0936783 0.0933579 0.0933691 0.0933404 0.0933579 0.0930471 0.0930559 0.0933579 0.0933691 0.0930559 0.0930598 0.0936783 0.093692 0.0933691 0.0933765 0.093692 0.0937022 0.0933765 0.0933817 0.0933691 0.0933765 0.0930598 0.0930611 0.0933765 0.0933817 0.0930611 0.0930614 0.0930471 0.0930559 0.0927527 0.0927534 0.0930559 0.0930598 0.0927534 0.0927502 0.0927527 0.0927534 0.092457 0.09245 0.0927534 0.0927502 0.09245 0.0924401 0.0930598 0.0930611 0.0927502 0.0927456 0.0930611 0.0930614 0.0927456 0.0927411 0.0927502 0.0927456 0.0924401 0.0924299 0.0927456 0.0927411 0.0924299 0.0924206 0.0949889 0.0950124 0.0946662 0.0946859 0.0950124 0.0950302 0.0946859 0.0947008 0.0946662 0.0946859 0.0943443 0.0943601 0.0946859 0.0947008 0.0943601 0.094372 0.0950302 0.0950435 0.0947008 0.094712 0.0950435 0.0950533 0.094712 0.0947203 0.0947008 0.094712 0.094372 0.0943811 0.094712 0.0947203 0.0943811 0.0943878 0.0943443 0.0943601 0.094023 0.0940348 0.0943601 0.094372 0.0940348 0.0940438 0.094023 0.0940348 0.0937022 0.09371 0.0940348 0.0940438 0.09371 0.0937159 0.094372 0.0943811 0.0940438 0.0940505 0.0943811 0.0943878 0.0940505 0.0940556 0.0940438 0.0940505 0.0937159 0.0937203 0.0940505 0.0940556 0.0937203 0.0937237 0.0950533 0.0950603 0.0947203 0.0947263 0.0950603 0.0950652 0.0947263 0.0947305 0.0947203 0.0947263 0.0943878 0.0943927 0.0947263 0.0947305 0.0943927 0.0943962 0.0950652 0.0950685 0.0947305 0.0947334 0.0950685 0.0950707 0.0947334 0.0947354 0.0947305 0.0947334 0.0943962 0.0943986 0.0947334 0.0947354 0.0943986 0.0944002 0.0943878 0.0943927 0.0940556 0.0940593 0.0943927 0.0943962 0.0940593 0.094062 0.0940556 0.0940593 0.0937237 0.0937262 0.0940593 0.094062 0.0937262 0.093728 0.0943962 0.0943986 0.094062 0.0940639 0.0943986 0.0944002 0.0940639 0.0940652 0.094062 0.0940639 0.093728 0.0937293 0.0940639 0.0940652 0.0937293 0.0937302 0.0937022 0.09371 0.0933817 0.0933855 0.09371 0.0937159 0.0933855 0.0933883 0.0933817 0.0933855 0.0930614 0.0930612 0.0933855 0.0933883 0.0930612 0.093061 0.0937159 0.0937203 0.0933883 0.0933904 0.0937203 0.0937237 0.0933904 0.0933921 0.0933883 0.0933904 0.093061 0.0930608 0.0933904 0.0933921 0.0930608 0.0930606 0.0930614 0.0930612 0.0927411 0.092737 0.0930612 0.093061 0.092737 0.0927338 0.0927411 0.092737 0.0924206 0.0924128 0.092737 0.0927338 0.0924128 0.0924066 0.093061 0.0930608 0.0927338 0.0927312 0.0930608 0.0930606 0.0927312 0.0927293 0.0927338 0.0927312 0.0924066 0.0924018 0.0927312 0.0927293 0.0924018 0.0923981 0.0937237 0.0937262 0.0933921 0.0933933 0.0937262 0.093728 0.0933933 0.0933942 0.0933921 0.0933933 0.0930606 0.0930606 0.0933933 0.0933942 0.0930606 0.0930606 0.093728 0.0937293 0.0933942 0.0933949 0.0937293 0.0937302 0.0933949 0.0933954 0.0933942 0.0933949 0.0930606 0.0930606 0.0933949 0.0933954 0.0930606 0.0930607 0.0930606 0.0930606 0.0927293 0.092728 0.0930606 0.0930606 0.092728 0.0927271 0.0927293 0.092728 0.0923981 0.0923955 0.092728 0.0927271 0.0923955 0.0923936 0.0930606 0.0930606 0.0927271 0.0927265 0.0930606 0.0930607 0.0927265 0.0927261 0.0927271 0.09