# vtk DataFile Version 3.0
#This file was generated by the deal.II library on 2022/1/6 at 22:37:57
ASCII
DATASET UNSTRUCTURED_GRID

POINTS 16384 double
0 0 0
0.1875 0 0
0 0.046875 0
0.1875 0.046875 0
0.1875 0 0
0.375 0 0
0.1875 0.046875 0
0.375 0.046875 0
0 0.046875 0
0.1875 0.046875 0
0 0.09375 0
0.1875 0.09375 0
0.1875 0.046875 0
0.375 0.046875 0
0.1875 0.09375 0
0.375 0.09375 0
0.375 0 0
0.5625 0 0
0.375 0.046875 0
0.5625 0.046875 0
0.5625 0 0
0.75 0 0
0.5625 0.046875 0
0.75 0.046875 0
0.375 0.046875 0
0.5625 0.046875 0
0.375 0.09375 0
0.5625 0.09375 0
0.5625 0.046875 0
0.75 0.046875 0
0.5625 0.09375 0
0.75 0.09375 0
0 0.09375 0
0.1875 0.09375 0
0 0.140625 0
0.1875 0.140625 0
0.1875 0.09375 0
0.375 0.09375 0
0.1875 0.140625 0
0.375 0.140625 0
0 0.140625 0
0.1875 0.140625 0
0 0.1875 0
0.1875 0.1875 0
0.1875 0.140625 0
0.375 0.140625 0
0.1875 0.1875 0
0.375 0.1875 0
0.375 0.09375 0
0.5625 0.09375 0
0.375 0.140625 0
0.5625 0.140625 0
0.5625 0.09375 0
0.75 0.09375 0
0.5625 0.140625 0
0.75 0.140625 0
0.375 0.140625 0
0.5625 0.140625 0
0.375 0.1875 0
0.5625 0.1875 0
0.5625 0.140625 0
0.75 0.140625 0
0.5625 0.1875 0
0.75 0.1875 0
0.75 0 0
0.9375 0 0
0.75 0.046875 0
0.9375 0.046875 0
0.9375 0 0
1.125 0 0
0.9375 0.046875 0
1.125 0.046875 0
0.75 0.046875 0
0.9375 0.046875 0
0.75 0.09375 0
0.9375 0.09375 0
0.9375 0.046875 0
1.125 0.046875 0
0.9375 0.09375 0
1.125 0.09375 0
1.125 0 0
1.3125 0 0
1.125 0.046875 0
1.3125 0.046875 0
1.3125 0 0
1.5 0 0
1.3125 0.046875 0
1.5 0.046875 0
1.125 0.046875 0
1.3125 0.046875 0
1.125 0.09375 0
1.3125 0.09375 0
1.3125 0.046875 0
1.5 0.046875 0
1.3125 0.09375 0
1.5 0.09375 0
0.75 0.09375 0
0.9375 0.09375 0
0.75 0.140625 0
0.9375 0.140625 0
0.9375 0.09375 0
1.125 0.09375 0
0.9375 0.140625 0
1.125 0.140625 0
0.75 0.140625 0
0.9375 0.140625 0
0.75 0.1875 0
0.9375 0.1875 0
0.9375 0.140625 0
1.125 0.140625 0
0.9375 0.1875 0
1.125 0.1875 0
1.125 0.09375 0
1.3125 0.09375 0
1.125 0.140625 0
1.3125 0.140625 0
1.3125 0.09375 0
1.5 0.09375 0
1.3125 0.140625 0
1.5 0.140625 0
1.125 0.140625 0
1.3125 0.140625 0
1.125 0.1875 0
1.3125 0.1875 0
1.3125 0.140625 0
1.5 0.140625 0
1.3125 0.1875 0
1.5 0.1875 0
0 0.1875 0
0.1875 0.1875 0
0 0.234375 0
0.1875 0.234375 0
0.1875 0.1875 0
0.375 0.1875 0
0.1875 0.234375 0
0.375 0.234375 0
0 0.234375 0
0.1875 0.234375 0
0 0.28125 0
0.1875 0.28125 0
0.1875 0.234375 0
0.375 0.234375 0
0.1875 0.28125 0
0.375 0.28125 0
0.375 0.1875 0
0.5625 0.1875 0
0.375 0.234375 0
0.5625 0.234375 0
0.5625 0.1875 0
0.75 0.1875 0
0.5625 0.234375 0
0.75 0.234375 0
0.375 0.234375 0
0.5625 0.234375 0
0.375 0.28125 0
0.5625 0.28125 0
0.5625 0.234375 0
0.75 0.234375 0
0.5625 0.28125 0
0.75 0.28125 0
0 0.28125 0
0.1875 0.28125 0
0 0.328125 0
0.1875 0.328125 0
0.1875 0.28125 0
0.375 0.28125 0
0.1875 0.328125 0
0.375 0.328125 0
0 0.328125 0
0.1875 0.328125 0
0 0.375 0
0.1875 0.375 0
0.1875 0.328125 0
0.375 0.328125 0
0.1875 0.375 0
0.375 0.375 0
0.375 0.28125 0
0.5625 0.28125 0
0.375 0.328125 0
0.5625 0.328125 0
0.5625 0.28125 0
0.75 0.28125 0
0.5625 0.328125 0
0.75 0.328125 0
0.375 0.328125 0
0.5625 0.328125 0
0.375 0.375 0
0.5625 0.375 0
0.5625 0.328125 0
0.75 0.328125 0
0.5625 0.375 0
0.75 0.375 0
0.75 0.1875 0
0.9375 0.1875 0
0.75 0.234375 0
0.9375 0.234375 0
0.9375 0.1875 0
1.125 0.1875 0
0.9375 0.234375 0
1.125 0.234375 0
0.75 0.234375 0
0.9375 0.234375 0
0.75 0.28125 0
0.9375 0.28125 0
0.9375 0.234375 0
1.125 0.234375 0
0.9375 0.28125 0
1.125 0.28125 0
1.125 0.1875 0
1.3125 0.1875 0
1.125 0.234375 0
1.3125 0.234375 0
1.3125 0.1875 0
1.5 0.1875 0
1.3125 0.234375 0
1.5 0.234375 0
1.125 0.234375 0
1.3125 0.234375 0
1.125 0.28125 0
1.3125 0.28125 0
1.3125 0.234375 0
1.5 0.234375 0
1.3125 0.28125 0
1.5 0.28125 0
0.75 0.28125 0
0.9375 0.28125 0
0.75 0.328125 0
0.9375 0.328125 0
0.9375 0.28125 0
1.125 0.28125 0
0.9375 0.328125 0
1.125 0.328125 0
0.75 0.328125 0
0.9375 0.328125 0
0.75 0.375 0
0.9375 0.375 0
0.9375 0.328125 0
1.125 0.328125 0
0.9375 0.375 0
1.125 0.375 0
1.125 0.28125 0
1.3125 0.28125 0
1.125 0.328125 0
1.3125 0.328125 0
1.3125 0.28125 0
1.5 0.28125 0
1.3125 0.328125 0
1.5 0.328125 0
1.125 0.328125 0
1.3125 0.328125 0
1.125 0.375 0
1.3125 0.375 0
1.3125 0.328125 0
1.5 0.328125 0
1.3125 0.375 0
1.5 0.375 0
1.5 0 0
1.6875 0 0
1.5 0.046875 0
1.6875 0.046875 0
1.6875 0 0
1.875 0 0
1.6875 0.046875 0
1.875 0.046875 0
1.5 0.046875 0
1.6875 0.046875 0
1.5 0.09375 0
1.6875 0.09375 0
1.6875 0.046875 0
1.875 0.046875 0
1.6875 0.09375 0
1.875 0.09375 0
1.875 0 0
2.0625 0 0
1.875 0.046875 0
2.0625 0.046875 0
2.0625 0 0
2.25 0 0
2.0625 0.046875 0
2.25 0.046875 0
1.875 0.046875 0
2.0625 0.046875 0
1.875 0.09375 0
2.0625 0.09375 0
2.0625 0.046875 0
2.25 0.046875 0
2.0625 0.09375 0
2.25 0.09375 0
1.5 0.09375 0
1.6875 0.09375 0
1.5 0.140625 0
1.6875 0.140625 0
1.6875 0.09375 0
1.875 0.09375 0
1.6875 0.140625 0
1.875 0.140625 0
1.5 0.140625 0
1.6875 0.140625 0
1.5 0.1875 0
1.6875 0.1875 0
1.6875 0.140625 0
1.875 0.140625 0
1.6875 0.1875 0
1.875 0.1875 0
1.875 0.09375 0
2.0625 0.09375 0
1.875 0.140625 0
2.0625 0.140625 0
2.0625 0.09375 0
2.25 0.09375 0
2.0625 0.140625 0
2.25 0.140625 0
1.875 0.140625 0
2.0625 0.140625 0
1.875 0.1875 0
2.0625 0.1875 0
2.0625 0.140625 0
2.25 0.140625 0
2.0625 0.1875 0
2.25 0.1875 0
2.25 0 0
2.4375 0 0
2.25 0.046875 0
2.4375 0.046875 0
2.4375 0 0
2.625 0 0
2.4375 0.046875 0
2.625 0.046875 0
2.25 0.046875 0
2.4375 0.046875 0
2.25 0.09375 0
2.4375 0.09375 0
2.4375 0.046875 0
2.625 0.046875 0
2.4375 0.09375 0
2.625 0.09375 0
2.625 0 0
2.8125 0 0
2.625 0.046875 0
2.8125 0.046875 0
2.8125 0 0
3 0 0
2.8125 0.046875 0
3 0.046875 0
2.625 0.046875 0
2.8125 0.046875 0
2.625 0.09375 0
2.8125 0.09375 0
2.8125 0.046875 0
3 0.046875 0
2.8125 0.09375 0
3 0.09375 0
2.25 0.09375 0
2.4375 0.09375 0
2.25 0.140625 0
2.4375 0.140625 0
2.4375 0.09375 0
2.625 0.09375 0
2.4375 0.140625 0
2.625 0.140625 0
2.25 0.140625 0
2.4375 0.140625 0
2.25 0.1875 0
2.4375 0.1875 0
2.4375 0.140625 0
2.625 0.140625 0
2.4375 0.1875 0
2.625 0.1875 0
2.625 0.09375 0
2.8125 0.09375 0
2.625 0.140625 0
2.8125 0.140625 0
2.8125 0.09375 0
3 0.09375 0
2.8125 0.140625 0
3 0.140625 0
2.625 0.140625 0
2.8125 0.140625 0
2.625 0.1875 0
2.8125 0.1875 0
2.8125 0.140625 0
3 0.140625 0
2.8125 0.1875 0
3 0.1875 0
1.5 0.1875 0
1.6875 0.1875 0
1.5 0.234375 0
1.6875 0.234375 0
1.6875 0.1875 0
1.875 0.1875 0
1.6875 0.234375 0
1.875 0.234375 0
1.5 0.234375 0
1.6875 0.234375 0
1.5 0.28125 0
1.6875 0.28125 0
1.6875 0.234375 0
1.875 0.234375 0
1.6875 0.28125 0
1.875 0.28125 0
1.875 0.1875 0
2.0625 0.1875 0
1.875 0.234375 0
2.0625 0.234375 0
2.0625 0.1875 0
2.25 0.1875 0
2.0625 0.234375 0
2.25 0.234375 0
1.875 0.234375 0
2.0625 0.234375 0
1.875 0.28125 0
2.0625 0.28125 0
2.0625 0.234375 0
2.25 0.234375 0
2.0625 0.28125 0
2.25 0.28125 0
1.5 0.28125 0
1.6875 0.28125 0
1.5 0.328125 0
1.6875 0.328125 0
1.6875 0.28125 0
1.875 0.28125 0
1.6875 0.328125 0
1.875 0.328125 0
1.5 0.328125 0
1.6875 0.328125 0
1.5 0.375 0
1.6875 0.375 0
1.6875 0.328125 0
1.875 0.328125 0
1.6875 0.375 0
1.875 0.375 0
1.875 0.28125 0
2.0625 0.28125 0
1.875 0.328125 0
2.0625 0.328125 0
2.0625 0.28125 0
2.25 0.28125 0
2.0625 0.328125 0
2.25 0.328125 0
1.875 0.328125 0
2.0625 0.328125 0
1.875 0.375 0
2.0625 0.375 0
2.0625 0.328125 0
2.25 0.328125 0
2.0625 0.375 0
2.25 0.375 0
2.25 0.1875 0
2.4375 0.1875 0
2.25 0.234375 0
2.4375 0.234375 0
2.4375 0.1875 0
2.625 0.1875 0
2.4375 0.234375 0
2.625 0.234375 0
2.25 0.234375 0
2.4375 0.234375 0
2.25 0.28125 0
2.4375 0.28125 0
2.4375 0.234375 0
2.625 0.234375 0
2.4375 0.28125 0
2.625 0.28125 0
2.625 0.1875 0
2.8125 0.1875 0
2.625 0.234375 0
2.8125 0.234375 0
2.8125 0.1875 0
3 0.1875 0
2.8125 0.234375 0
3 0.234375 0
2.625 0.234375 0
2.8125 0.234375 0
2.625 0.28125 0
2.8125 0.28125 0
2.8125 0.234375 0
3 0.234375 0
2.8125 0.28125 0
3 0.28125 0
2.25 0.28125 0
2.4375 0.28125 0
2.25 0.328125 0
2.4375 0.328125 0
2.4375 0.28125 0
2.625 0.28125 0
2.4375 0.328125 0
2.625 0.328125 0
2.25 0.328125 0
2.4375 0.328125 0
2.25 0.375 0
2.4375 0.375 0
2.4375 0.328125 0
2.625 0.328125 0
2.4375 0.375 0
2.625 0.375 0
2.625 0.28125 0
2.8125 0.28125 0
2.625 0.328125 0
2.8125 0.328125 0
2.8125 0.28125 0
3 0.28125 0
2.8125 0.328125 0
3 0.328125 0
2.625 0.328125 0
2.8125 0.328125 0
2.625 0.375 0
2.8125 0.375 0
2.8125 0.328125 0
3 0.328125 0
2.8125 0.375 0
3 0.375 0
0 0.375 0
0.1875 0.375 0
0 0.421875 0
0.1875 0.421875 0
0.1875 0.375 0
0.375 0.375 0
0.1875 0.421875 0
0.375 0.421875 0
0 0.421875 0
0.1875 0.421875 0
0 0.46875 0
0.1875 0.46875 0
0.1875 0.421875 0
0.375 0.421875 0
0.1875 0.46875 0
0.375 0.46875 0
0.375 0.375 0
0.5625 0.375 0
0.375 0.421875 0
0.5625 0.421875 0
0.5625 0.375 0
0.75 0.375 0
0.5625 0.421875 0
0.75 0.421875 0
0.375 0.421875 0
0.5625 0.421875 0
0.375 0.46875 0
0.5625 0.46875 0
0.5625 0.421875 0
0.75 0.421875 0
0.5625 0.46875 0
0.75 0.46875 0
0 0.46875 0
0.1875 0.46875 0
0 0.515625 0
0.1875 0.515625 0
0.1875 0.46875 0
0.375 0.46875 0
0.1875 0.515625 0
0.375 0.515625 0
0 0.515625 0
0.1875 0.515625 0
0 0.5625 0
0.1875 0.5625 0
0.1875 0.515625 0
0.375 0.515625 0
0.1875 0.5625 0
0.375 0.5625 0
0.375 0.46875 0
0.5625 0.46875 0
0.375 0.515625 0
0.5625 0.515625 0
0.5625 0.46875 0
0.75 0.46875 0
0.5625 0.515625 0
0.75 0.515625 0
0.375 0.515625 0
0.5625 0.515625 0
0.375 0.5625 0
0.5625 0.5625 0
0.5625 0.515625 0
0.75 0.515625 0
0.5625 0.5625 0
0.75 0.5625 0
0.75 0.375 0
0.9375 0.375 0
0.75 0.421875 0
0.9375 0.421875 0
0.9375 0.375 0
1.125 0.375 0
0.9375 0.421875 0
1.125 0.421875 0
0.75 0.421875 0
0.9375 0.421875 0
0.75 0.46875 0
0.9375 0.46875 0
0.9375 0.421875 0
1.125 0.421875 0
0.9375 0.46875 0
1.125 0.46875 0
1.125 0.375 0
1.3125 0.375 0
1.125 0.421875 0
1.3125 0.421875 0
1.3125 0.375 0
1.5 0.375 0
1.3125 0.421875 0
1.5 0.421875 0
1.125 0.421875 0
1.3125 0.421875 0
1.125 0.46875 0
1.3125 0.46875 0
1.3125 0.421875 0
1.5 0.421875 0
1.3125 0.46875 0
1.5 0.46875 0
0.75 0.46875 0
0.9375 0.46875 0
0.75 0.515625 0
0.9375 0.515625 0
0.9375 0.46875 0
1.125 0.46875 0
0.9375 0.515625 0
1.125 0.515625 0
0.75 0.515625 0
0.9375 0.515625 0
[...]
POINT_DATA 16384
SCALARS x_displacement double 1
LOOKUP_TABLE default
0 0.0302913 0 0.0275342 0.0302913 0.0526379 0.0275342 0.051701 0 0.0275342 0 0.0256062 0.0275342 0.051701 0.0256062 0.0495642 0.0526379 0.0646597 0.051701 0.064018 0.0646597 0.0662537 0.064018 0.0659665 0.051701 0.064018 0.0495642 0.0625964 0.064018 0.0659665 0.0625964 0.065181 0 0.0256062 0 0.0239559 0.0256062 0.0495642 0.0239559 0.0465141 0 0.0239559 0 0.0225294 0.0239559 0.0465141 0.0225294 0.043304 0.0495642 0.0625964 0.0465141 0.0603094 0.0625964 0.065181 0.0603094 0.0639374 0.0465141 0.0603094 0.043304 0.0570146 0.0603094 0.0639374 0.0570146 0.0623719 0.0662537 0.0669448 0.0659665 0.0669582 0.0669448 0.0679167 0.0669582 0.0681063 0.0659665 0.0669582 0.065181 0.0667037 0.0669582 0.0681063 0.0667037 0.0681064 0.0679167 0.0689199 0.0681063 0.0691017 0.0689199 0.069771 0.0691017 0.0698903 0.0681063 0.0691017 0.0681064 0.0691661 0.0691017 0.0698903 0.0691661 0.0699352 0.065181 0.0667037 0.0639374 0.0662228 0.0667037 0.0681064 0.0662228 0.0679437 0.0639374 0.0662228 0.0623719 0.065563 0.0662228 0.0679437 0.065563 0.0676388 0.0681064 0.0691661 0.0679437 0.0691199 0.0691661 0.0699352 0.0691199 0.0699093 0.0679437 0.0691199 0.0676388 0.0689748 0.0691199 0.0699093 0.0689748 0.0698163 0 0.0225294 0 0.0212968 0.0225294 0.043304 0.0212968 0.0402436 0 0.0212968 0 0.0201916 0.0212968 0.0402436 0.0201916 0.0378171 0.043304 0.0570146 0.0402436 0.0535986 0.0570146 0.0623719 0.0535986 0.0607244 0.0402436 0.0535986 0.0378171 0.0508735 0.0535986 0.0607244 0.0508735 0.0590347 0 0.0201916 0 0.0192505 0.0201916 0.0378171 0.0192505 0.0358921 0 0.0192505 0 0.0184707 0.0192505 0.0358921 0.0184707 0.0343573 0.0378171 0.0508735 0.0358921 0.0487027 0.0508735 0.0590347 0.0487027 0.0574336 0.0358921 0.0487027 0.0343573 0.0469315 0.0487027 0.0574336 0.0469315 0.055974 0.0623719 0.065563 0.0607244 0.0647485 0.065563 0.0676388 0.0647485 0.0672188 0.0607244 0.0647485 0.0590347 0.063838 0.0647485 0.0672188 0.063838 0.0667048 0.0676388 0.0689748 0.0672188 0.0687418 0.0689748 0.0698163 0.0687418 0.0696615 0.0672188 0.0687418 0.0667048 0.0684336 0.0687418 0.0696615 0.0684336 0.0694506 0.0590347 0.063838 0.0574336 0.0628667 0.063838 0.0667048 0.0628667 0.0661209 0.0574336 0.0628667 0.055974 0.0618775 0.0628667 0.0661209 0.0618775 0.0654864 0.0667048 0.0684336 0.0661209 0.0680619 0.0684336 0.0694506 0.0680619 0.0691903 0.0661209 0.0680619 0.0654864 0.0676394 0.0680619 0.0691903 0.0676394 0.0688871 0.069771 0.0704563 0.0698903 0.0704964 0.0704563 0.0710069 0.0704964 0.0709685 0.0698903 0.0704964 0.0699352 0.0704914 0.0704964 0.0709685 0.0704914 0.0709043 0.0710069 0.0714569 0.0709685 0.0713489 0.0714569 0.0718324 0.0713489 0.0716666 0.0709685 0.0713489 0.0709043 0.0712277 0.0713489 0.0716666 0.0712277 0.0714955 0.0699352 0.0704914 0.0699093 0.0704414 0.0704914 0.0709043 0.0704414 0.0708133 0.0699093 0.0704414 0.0698163 0.0703478 0.0704414 0.0708133 0.0703478 0.0706952 0.0709043 0.0712277 0.0708133 0.0710918 0.0712277 0.0714955 0.0710918 0.0713176 0.0708133 0.0710918 0.0706952 0.0709403 0.0710918 0.0713176 0.0709403 0.0711317 0.0718324 0.0721502 0.0716666 0.0719385 0.0721502 0.0724204 0.0719385 0.0721733 0.0716666 0.0719385 0.0714955 0.0717262 0.0719385 0.0721733 0.0717262 0.0719281 0.0724204 0.0726489 0.0721733 0.0723752 0.0726489 0.0728401 0.0723752 0.0725467 0.0721733 0.0723752 0.0719281 0.0721046 0.0723752 0.0725467 0.0721046 0.0722568 0.0714955 0.0717262 0.0713176 0.0715118 0.0717262 0.0719281 0.0715118 0.0716837 0.0713176 0.0715118 0.0711317 0.0712943 0.0715118 0.0716837 0.0712943 0.0714391 0.0719281 0.0721046 0.0716837 0.0718363 0.0721046 0.0722568 0.0718363 0.0719699 0.0716837 0.0718363 0.0714391 0.0715693 0.0718363 0.0719699 0.0715693 0.0716851 0.0698163 0.0703478 0.0696615 0.0702126 0.0703478 0.0706952 0.0702126 0.0705504 0.0696615 0.0702126 0.0694506 0.0700383 0.0702126 0.0705504 0.0700383 0.0703795 0.0706952 0.0709403 0.0705504 0.0707727 0.0709403 0.0711317 0.0707727 0.0709368 0.0705504 0.0707727 0.0703795 0.0705887 0.0707727 0.0709368 0.0705887 0.0707325 0.0694506 0.0700383 0.0691903 0.0698279 0.0700383 0.0703795 0.0698279 0.0701839 0.0691903 0.0698279 0.0688871 0.0695849 0.0698279 0.0701839 0.0695849 0.0699648 0.0703795 0.0705887 0.0701839 0.0703885 0.0705887 0.0707325 0.0703885 0.0705182 0.0701839 0.0703885 0.0699648 0.0701725 0.0703885 0.0705182 0.0701725 0.0702939 0.0711317 0.0712943 0.0709368 0.0710727 0.0712943 0.0714391 0.0710727 0.0711934 0.0709368 0.0710727 0.0707325 0.0708462 0.0710727 0.0711934 0.0708462 0.0709457 0.0714391 0.0715693 0.0711934 0.071303 0.0715693 0.0716851 0.071303 0.0714019 0.0711934 0.071303 0.0709457 0.0710366 0.071303 0.0714019 0.0710366 0.0711196 0.0707325 0.0708462 0.0705182 0.0706142 0.0708462 0.0709457 0.0706142 0.0706955 0.0705182 0.0706142 0.0702939 0.0703762 0.0706142 0.0706955 0.0703762 0.0704422 0.0709457 0.0710366 0.0706955 0.0707695 0.0710366 0.0711196 0.0707695 0.0708377 0.0706955 0.0707695 0.0704422 0.0705012 0.0707695 0.0708377 0.0705012 0.0705558 0 0.0184707 0 0.0178334 0.0184707 0.0343573 0.0178334 0.0331246 0 0.0178334 0 0.017315 0.0178334 0.0331246 0.017315 0.0321272 0.0343573 0.0469315 0.0331246 0.0454656 0.0469315 0.055974 0.0454656 0.0546639 0.0331246 0.0454656 0.0321272 0.0442407 0.0454656 0.0546639 0.0442407 0.0534962 0 0.017315 0 0.0168932 0.017315 0.0321272 0.0168932 0.0313142 0 0.0168932 0 0.0165486 0.0168932 0.0313142 0.0165486 0.0306462 0.0321272 0.0442407 0.0313142 0.0432094 0.0442407 0.0534962 0.0432094 0.0524587 0.0313142 0.0432094 0.0306462 0.0423353 0.0432094 0.0524587 0.0423353 0.0515376 0.055974 0.0618775 0.0546639 0.0609046 0.0618775 0.0654864 0.0609046 0.0648203 0.0546639 0.0609046 0.0534962 0.0599699 0.0609046 0.0648203 0.0599699 0.0641397 0.0654864 0.0676394 0.0648203 0.0671773 0.0676394 0.0688871 0.0671773 0.0685476 0.0648203 0.0671773 0.0641397 0.0666862 0.0671773 0.0685476 0.0666862 0.0681784 0.0534962 0.0599699 0.0524587 0.0590856 0.0599699 0.0641397 0.0590856 0.063459 0.0524587 0.0590856 0.0515376 0.0582575 0.0590856 0.063459 0.0582575 0.062789 0.0641397 0.0666862 0.063459 0.0661757 0.0666862 0.0681784 0.0661757 0.0677857 0.063459 0.0661757 0.062789 0.0656543 0.0661757 0.0677857 0.0656543 0.0673751 0 0.0165486 0 0.0162655 0.0165486 0.0306462 0.0162655 0.0300931 0 0.0162655 0 0.016031 0.0162655 0.0300931 0.016031 0.0296313 0.0306462 0.0423353 0.0300931 0.0415899 0.0423353 0.0515376 0.0415899 0.0507196 0.0300931 0.0415899 0.0296313 0.0409505 0.0415899 0.0507196 0.0409505 0.0499923 0 0.016031 0 0.0158353 0.016031 0.0296313 0.0158353 0.0292424 0 0.0158353 0 0.0156704 0.0158353 0.0292424 0.0156704 0.0289122 0.0296313 0.0409505 0.0292424 0.0403988 0.0409505 0.0499923 0.0403988 0.0493444 0.0292424 0.0403988 0.0289122 0.0399197 0.0403988 0.0493444 0.0399197 0.0487659 0.0515376 0.0582575 0.0507196 0.0574875 0.0582575 0.062789 0.0574875 0.0621376 0.0507196 0.0574875 0.0499923 0.0567747 0.0574875 0.0621376 0.0567747 0.0615101 0.062789 0.0656543 0.0621376 0.0651294 0.0656543 0.0673751 0.0651294 0.066952 0.0621376 0.0651294 0.0615101 0.0646069 0.0651294 0.066952 0.0646069 0.0665212 0.0499923 0.0567747 0.0493444 0.0561168 0.0567747 0.0615101 0.0561168 0.06091 0.0493444 0.0561168 0.0487659 0.0555105 0.0561168 0.06091 0.0555105 0.060339 0.0615101 0.0646069 0.06091 0.0640916 0.0646069 0.0665212 0.0640916 0.0660866 0.06091 0.0640916 0.060339 0.0635873 0.0640916 0.0660866 0.0635873 0.0656519 0.0688871 0.0695849 0.0685476 0.0693127 0.0695849 0.0699648 0.0693127 0.0697242 0.0685476 0.0693127 0.0681784 0.0690152 0.0693127 0.0697242 0.0690152 0.0694638 0.0699648 0.0701725 0.0697242 0.0699413 0.0701725 0.0702939 0.0699413 0.0700596 0.0697242 0.0699413 0.0694638 0.0696959 0.0699413 0.0700596 0.0696959 0.0698154 0.0681784 0.0690152 0.0677857 0.068696 0.0690152 0.0694638 0.068696 0.0691858 0.0677857 0.068696 0.0673751 0.0683588 0.068696 0.0691858 0.0683588 0.0688923 0.0694638 0.0696959 0.0691858 0.0694371 0.0696959 0.0698154 0.0694371 0.0695618 0.0691858 0.0694371 0.0688923 0.0691661 0.0694371 0.0695618 0.0691661 0.0692991 0.0702939 0.0703762 0.0700596 0.0701321 0.0703762 0.0704422 0.0701321 0.0701854 0.0700596 0.0701321 0.0698154 0.0698816 0.0701321 0.0701854 0.0698816 0.0699248 0.0704422 0.0705012 0.0701854 0.0702312 0.0705012 0.0705558 0.0702312 0.0702733 0.0701854 0.0702312 0.0699248 0.0699591 0.0702312 0.0702733 0.0699591 0.06999 0.0698154 0.0698816 0.0695618 0.0696247 0.0698816 0.0699248 0.0696247 0.0696601 0.0695618 0.0696247 0.0692991 0.0693614 0.0696247 0.0696601 0.0693614 0.0693912 0.0699248 0.0699591 0.0696601 0.0696847 0.0699591 0.06999 0.0696847 0.0697055 0.0696601 0.0696847 0.0693912 0.0694077 0.0696847 0.0697055 0.0694077 0.0694195 0.0673751 0.0683588 0.066952 0.068007 0.0683588 0.0688923 0.068007 0.0685854 0.066952 0.068007 0.0665212 0.0676439 0.068007 0.0685854 0.0676439 0.0682672 0.0688923 0.0691661 0.0685854 0.0688841 0.0691661 0.0692991 0.0688841 0.069028 0.0685854 0.0688841 0.0682672 0.0685922 0.0688841 0.069028 0.0685922 0.068749 0.0665212 0.0676439 0.0660866 0.0672725 0.0676439 0.0682672 0.0672725 0.0679396 0.0660866 0.0672725 0.0656519 0.0668956 0.0672725 0.0679396 0.0668956 0.0676046 0.0682672 0.0685922 0.0679396 0.0682916 0.0685922 0.068749 0.0682916 0.0684627 0.0679396 0.0682916 0.0676046 0.0679837 0.0682916 0.0684627 0.0679837 0.0681699 0.0692991 0.0693614 0.069028 0.069092 0.0693614 0.0693912 0.069092 0.0691181 0.069028 0.069092 0.068749 0.0688167 0.069092 0.0691181 0.0688167 0.0688406 0.0693912 0.0694077 0.0691181 0.0691279 0.0694077 0.0694195 0.0691279 0.0691318 0.0691181 0.0691279 0.0688406 0.0688451 0.0691279 0.0691318 0.0688451 0.0688422 0.068749 0.0688167 0.0684627 0.0685356 0.0688167 0.0688406 0.0685356 0.068559 0.0684627 0.0685356 0.0681699 0.0682493 0.0685356 0.068559 0.0682493 0.0682731 0.0688406 0.0688451 0.068559 0.0685593 0.0688451 0.0688422 0.0685593 0.0685504 0.068559 0.0685593 0.0682731 0.0682704 0.0685593 0.0685504 0.0682704 0.0682564 0.0728401 0.0729977 0.0725467 0.0726899 0.0729977 0.0731253 0.0726899 0.0728074 0.0725467 0.0726899 0.0722568 0.0723858 0.0726899 0.0728074 0.0723858 0.0724927 0.0731253 0.073227 0.0728074 0.0729019 0.073227 0.0733064 0.0729019 0.0729765 0.0728074 0.0729019 0.0724927 0.0725797 0.0729019 0.0729765 0.0725797 0.072649 0.0722568 0.0723858 0.0719699 0.0720846 0.0723858 0.0724927 0.0720846 0.0721809 0.0719699 0.0720846 0.0716851 0.0717859 0.0720846 0.0721809 0.0717859 0.0718715 0.0724927 0.0725797 0.0721809 0.07226 0.0725797 0.072649 0.07226 0.0723237 0.0721809 0.07226 0.0718715 0.0719426 0.07226 0.0723237 0.0719426 0.0720004 0.0733064 0.0733674 0.0729765 0.0730343 0.0733674 0.0734134 0.0730343 0.0730782 0.0729765 0.0730343 0.072649 0.0727032 0.0730343 0.0730782 0.0727032 0.0727447 0.0734134 0.0734473 0.0730782 0.073111 0.0734473 0.0734718 0.073111 0.0731349 0.0730782 0.073111 0.0727447 0.0727759 0.073111 0.0731349 0.0727759 0.0727989 0.072649 0.0727032 0.0723237 0.0723739 0.0727032 0.0727447 0.0723739 0.0724127 0.0723237 0.0723739 0.0720004 0.0720463 0.0723739 0.0724127 0.0720463 0.072082 0.0727447 0.0727759 0.0724127 0.0724421 0.0727759 0.0727989 0.0724421 0.0724639 0.0724127 0.0724421 0.072082 0.0721094 0.0724421 0.0724639 0.0721094 0.0721298 0.0716851 0.0717859 0.0714019 0.0714891 0.0717859 0.0718715 0.0714891 0.0715642 0.0714019 0.0714891 0.0711196 0.0711938 0.0714891 0.0715642 0.0711938 0.0712585 0.0718715 0.0719426 0.0715642 0.0716272 0.0719426 0.0720004 0.0716272 0.0716788 0.0715642 0.0716272 0.0712585 0.0713133 0.0716272 0.0716788 0.0713133 0.0713587 0.0711196 0.0711938 0.0708377 0.0708995 0.0711938 0.0712585 0.0708995 0.070954 0.0708377 0.0708995 0.0705558 0.0706058 0.0708995 0.070954 0.0706058 0.0706505 0.0712585 0.0713133 0.070954 0.0710008 0.0713133 0.0713587 0.0710008 0.0710398 0.070954 0.0710008 0.0706505 0.0706893 0.0710008 0.0710398 0.0706893 0.0707221 0.0720004 0.0720463 0.0716788 0.0717202 0.0720463 0.072082 0.0717202 0.0717526 0.0716788 0.0717202 0.0713587 0.0713954 0.0717202 0.0717526 0.0713954 0.0714244 0.072082 0.0721094 0.0717526 0.0717776 0.0721094 0.0721298 0.0717776 0.0717965 0.0717526 0.0717776 0.0714244 0.0714468 0.0717776 0.0717965 0.0714468 0.0714639 0.0713587 0.0713954 0.0710398 0.0710717 0.0713954 0.0714244 0.0710717 0.0710971 0.0710398 0.0710717 0.0707221 0.070749 0.0710717 0.0710971 0.070749 0.0707706 0.0714244 0.0714468 0.0710971 0.0711169 0.0714468 0.0714639 0.0711169 0.071132 0.0710971 0.0711169 0.0707706 0.0707876 0.0711169 0.071132 0.0707876 0.0708007 0.0734718 0.073489 0.0731349 0.0731519 0.073489 0.0735008 0.0731519 0.0731637 0.0731349 0.0731519 0.0727989 0.0728155 0.0731519 0.0731637 0.0728155 0.0728271 0.0735008 0.0735085 0.0731637 0.0731715 0.0735085 0.0735134 0.0731715 0.0731766 0.0731637 0.0731715 0.0728271 0.072835 0.0731715 0.0731766 0.072835 0.0728401 0.0727989 0.0728155 0.0724639 0.0724798 0.0728155 0.0728271 0.0724798 0.072491 0.0724639 0.0724798 0.0721298 0.0721448 0.0724798 0.072491 0.0721448 0.0721555 0.0728271 0.072835 0.072491 0.0724988 0.072835 0.0728401 0.0724988 0.0725039 0.072491 0.0724988 0.0721555 0.072163 0.0724988 0.0725039 0.072163 0.072168 0.0735134 0.0735161 0.0731766 0.0731796 0.0735161 0.0735175 0.0731796 0.0731812 0.0731766 0.0731796 0.0728401 0.0728433 0.0731796 0.0731812 0.0728433 0.0728451 0.0735175 0.0735179 0.0731812 0.0731819 0.0735179 0.0735178 0.0731819 0.0731819 0.0731812 0.0731819 0.0728451 0.0728459 0.0731819 0.0731819 0.0728459 0.0728461 0.0728401 0.0728433 0.0725039 0.0725072 0.0728433 0.0728451 0.0725072 0.0725091 0.0725039 0.0725072 0.072168 0.0721712 0.0725072 0.0725091 0.0721712 0.0721732 0.0728451 0.0728459 0.0725091 0.07251 0.0728459 0.0728461 0.07251 0.0725104 0.0725091 0.07251 0.0721732 0.0721743 0.07251 0.0725104 0.0721743 0.0721747 0.0721298 0.0721448 0.0717965 0.0718104 0.0721448 0.0721555 0.0718104 0.0718205 0.0717965 0.0718104 0.0714639 0.0714766 0.0718104 0.0718205 0.0714766 0.0714859 0.0721555 0.072163 0.0718205 0.0718275 0.072163 0.072168 0.0718275 0.0718323 0.0718205 0.0718275 0.0714859 0.0714924 0.0718275 0.0718323 0.0714924 0.0714969 0.0714639 0.0714766 0.071132 0.0711434 0.0714766 0.0714859 0.0711434 0.0711517 0.071132 0.0711434 0.0708007 0.0708106 0.0711434 0.0711517 0.0708106 0.0708179 0.0714859 0.0714924 0.0711517 0.0711576 0.0714924 0.0714969 0.0711576 0.0711618 0.0711517 0.0711576 0.0708179 0.0708232 0.0711576 0.0711618 0.0708232 0.0708269 0.072168 0.0721712 0.0718323 0.0718355 0.0721712 0.0721732 0.0718355 0.0718375 0.0718323 0.0718355 0.0714969 0.0715 0.0718355 0.0718375 0.0715 0.0715019 0.0721732 0.0721743 0.0718375 0.0718386 0.0721743 0.0721747 0.0718386 0.0718391 0.0718375 0.0718386 0.0715019 0.071503 0.0718386 0.0718391 0.071503 0.0715036 0.0714969 0.0715 0.0711618 0.0711646 0.0715 0.0715019 0.0711646 0.0711664 0.0711618 0.0711646 0.0708269 0.0708294 0.0711646 0.0711664 0.0708294 0.070831 0.0715019 0.071503 0.0711664 0.0711675 0.071503 0.0715036 0.0711675 0.0711681 0.0711664 0.0711675 0.070831 0.0708321 0.0711675 0.0711681 0.0708321 0.0708326 0.0705558 0.0706058 0.0702733 0.0703123 0.0706058 0.0706505 0.0703123 0.0703476 0.0702733 0.0703123 0.06999 0.0700187 0.0703123 0.0703476 0.0700187 0.070045 0.0706505 0.0706893 0.0703476 0.0703787 0.0706893 0.0707221 0.0703787 0.0704051 0.0703476 0.0703787 0.070045 0.0700685 0.0703787 0.0704051 0.0700685 0.0700888 0.06999 0.0700187 0.0697055 0.0697247 0.0700187 0.070045 0.0697247 0.0697425 0.0697055 0.0697247 0.0694195 0.0694299 0.0697247 0.0697425 0.0694299 0.0694397 0.070045 0.0700685 0.0697425 0.0697587 0.0700685 0.0700888 0.0697587 0.0697729 0.0697425 0.0697587 0.0694397 0.0694489 0.0697587 0.0697729 0.0694489 0.0694573 0.0707221 0.070749 0.0704051 0.0704271 0.070749 0.0707706 0.0704271 0.0704449 0.0704051 0.0704271 0.0700888 0.0701058 0.0704271 0.0704449 0.0701058 0.0701198 0.0707706 0.0707876 0.0704449 0.070459 0.0707876 0.0708007 0.070459 0.07047 0.0704449 0.070459 0.0701198 0.0701309 0.070459 0.07047 0.0701309 0.0701396 0.0700888 0.0701058 0.0697729 0.0697851 0.0701058 0.0701198 0.0697851 0.0697951 0.0697729 0.0697851 0.0694573 0.0694646 0.0697851 0.0697951 0.0694646 0.0694709 0.0701198 0.0701309 0.0697951 0.0698033 0.0701309 0.0701396 0.0698033 0.0698097 0.0697951 0.0698033 0.0694709 0.069476 0.0698033 0.0698097 0.069476 0.0694801 0.0694195 0.0694299 0.0691318 0.0691342 0.0694299 0.0694397 0.0691342 0.0691365 0.0691318 0.0691342 0.0688422 0.0688373 0.0691342 0.0691365 0.0688373 0.0688326 0.0694397 0.0694489 0.0691365 0.0691391 0.0694489 0.0694573 0.0691391 0.0691417 0.0691365 0.0691391 0.0688326 0.0688289 0.0691391 0.0691417 0.0688289 0.0688261 0.0688422 0.0688373 0.0685504 0.0685389 0.0688373 0.0688326 0.0685389 0.0685278 0.0685504 0.0685389 0.0682564 0.0682391 0.0685389 0.0685278 0.0682391 0.068222 0.0688326 0.0688289 0.0685278 0.0685182 0.0688289 0.0688261 0.0685182 0.0685102 0.0685278 0.0685182 0.068222 0.0682068 0.0685182 0.0685102 0.0682068 0.0681939 0.0694573 0.0694646 0.0691417 0.0691444 0.0694646 0.0694709 0.0691444 0.0691468 0.0691417 0.0691444 0.0688261 0.0688242 0.0691444 0.0691468 0.0688242 0.0688229 0.0694709 0.069476 0.0691468 0.0691489 0.069476 0.0694801 0.0691489 0.0691507 0.0691468 0.0691489 0.0688229 0.068822 0.0691489 0.0691507 0.068822 0.0688215 0.0688261 0.0688242 0.0685102 0.0685039 0.0688242 0.0688229 0.0685039 0.0684989 0.0685102 0.0685039 0.0681939 0.0681834 0.0685039 0.0684989 0.0681834 0.0681749 0.0688229 0.068822 0.0684989 0.0684952 0.068822 0.0688215 0.0684952 0.0684924 0.0684989 0.0684952 0.0681749 0.0681684 0.0684952 0.0684924 0.0681684 0.0681633 0.0708007 0.0708106 0.07047 0.0704783 0.0708106 0.0708179 0.0704783 0.0704845 0.07047 0.0704783 0.0701396 0.0701463 0.0704783 0.0704845 0.0701463 0.0701513 0.0708179 0.0708232 0.0704845 0.070489 0.0708232 0.0708269 0.070489 0.0704921 0.0704845 0.070489 0.0701513 0.070155 0.070489 0.0704921 0.070155 0.0701576 0.0701396 0.0701463 0.0698097 0.0698147 0.0701463 0.0701513 0.0698147 0.0698184 0.0698097 0.0698147 0.0694801 0.0694833 0.0698147 0.0698184 0.0694833 0.0694858 0.0701513 0.070155 0.0698184 0.0698212 0.070155 0.0701576 0.0698212 0.0698232 0.0698184 0.0698212 0.0694858 0.0694877 0.0698212 0.0698232 0.0694877 0.069489 0.0708269 0.0708294 0.0704921 0.0704943 0.0708294 0.070831 0.0704943 0.0704958 0.0704921 0.0704943 0.0701576 0.0701594 0.0704943 0.0704958 0.0701594 0.0701607 0.070831 0.0708321 0.0704958 0.0704967 0.0708321 0.0708326 0.0704967 0.0704973 0.0704958 0.0704967 0.0701607 0.0701615 0.0704967 0.0704973 0.0701615 0.0701619 0.0701576 0.0701594 0.0698232 0.0698247 0.0701594 0.0701607 0.0698247 0.0698256 0.0698232 0.0698247 0.069489 0.06949 0.0698247 0.0698256 0.06949 0.0694907 0.0701607 0.0701615 0.0698256 0.0698263 0.0701615 0.0701619 0.0698263 0.0698267 0.0698256 0.0698263 0.0694907 0.0694911 0.0698263 0.0698267 0.0694911 0.0694914 0.0694801 0.0694833 0.0691507 0.0691522 0.0694833 0.0694858 0.0691522 0.0691533 0.0691507 0.0691522 0.0688215 0.0688212 0.0691522 0.0691533 0.0688212 0.068821 0.0694858 0.0694877 0.0691533 0.0691542 0.0694877 0.069489 0.0691542 0.0691549 0.0691533 0.0691542 0.068821 0.068821 0.0691542 0.0691549 0.068821 0.068821 0.0688215 0.0688212 0.0684924 0.0684903 0.0688212 0.068821 0.0684903 0.0684888 0.0684924 0.0684903 0.0681633 0.0681595 0.0684903 0.0684888 0.0681595 0.0681567 0.068821 0.068821 0.0684888 0.0684878 0.068821 0.068821 0.0684878 0.0684871 0.0684888 0.0684878 0.0681567 0.0681547 0.0684878 0.0684871 0.0681547 0.0681532 0.069489 0.06949 0.0691549 0.0691555 0.06949 0.0694907 0.0691555 0.0691558 0.0691549 0.0691555 0.068821 0.068821 0.0691555 0.0691558 0.068821 0.068821 0.0694907 0.0694911 0.0691558 0.0691561 0.0694911 0.0694914 0.0691561 0.0691563 0.0691558 0.0691561 0.068821 0.0688211 0.0691561 0.0691563 0.0688211 0.0688211 0.068821 0.068821 0.0684871 0.0684866 0.068821 0.068821 0.0684866 0.0684863 0.0684871 0.0684866 0.0681532 0.0681523 0.0684866 0.0684863 0.0681523 0.0681516 0.068821 0.0688211 0.0684863 0.0684861 0.0688211 0.0688211 0.0684861 0.068486 0.0684863 0.0684861 0.0681516