# vtk DataFile Version 3.0
#This file was generated by the deal.II library on 2022/1/6 at 22:55:18
ASCII
DATASET UNSTRUCTURED_GRID

POINTS 16384 double
0 0 0
0.1875 0 0
0 0.046875 0
0.1875 0.046875 0
0.1875 0 0
0.375 0 0
0.1875 0.046875 0
0.375 0.046875 0
0 0.046875 0
0.1875 0.046875 0
0 0.09375 0
0.1875 0.09375 0
0.1875 0.046875 0
0.375 0.046875 0
0.1875 0.09375 0
0.375 0.09375 0
0.375 0 0
0.5625 0 0
0.375 0.046875 0
0.5625 0.046875 0
0.5625 0 0
0.75 0 0
0.5625 0.046875 0
0.75 0.046875 0
0.375 0.046875 0
0.5625 0.046875 0
0.375 0.09375 0
0.5625 0.09375 0
0.5625 0.046875 0
0.75 0.046875 0
0.5625 0.09375 0
0.75 0.09375 0
0 0.09375 0
0.1875 0.09375 0
0 0.140625 0
0.1875 0.140625 0
0.1875 0.09375 0
0.375 0.09375 0
0.1875 0.140625 0
0.375 0.140625 0
0 0.140625 0
0.1875 0.140625 0
0 0.1875 0
0.1875 0.1875 0
0.1875 0.140625 0
0.375 0.140625 0
0.1875 0.1875 0
0.375 0.1875 0
0.375 0.09375 0
0.5625 0.09375 0
0.375 0.140625 0
0.5625 0.140625 0
0.5625 0.09375 0
0.75 0.09375 0
0.5625 0.140625 0
0.75 0.140625 0
0.375 0.140625 0
0.5625 0.140625 0
0.375 0.1875 0
0.5625 0.1875 0
0.5625 0.140625 0
0.75 0.140625 0
0.5625 0.1875 0
0.75 0.1875 0
0.75 0 0
0.9375 0 0
0.75 0.046875 0
0.9375 0.046875 0
0.9375 0 0
1.125 0 0
0.9375 0.046875 0
1.125 0.046875 0
0.75 0.046875 0
0.9375 0.046875 0
0.75 0.09375 0
0.9375 0.09375 0
0.9375 0.046875 0
1.125 0.046875 0
0.9375 0.09375 0
1.125 0.09375 0
1.125 0 0
1.3125 0 0
1.125 0.046875 0
1.3125 0.046875 0
1.3125 0 0
1.5 0 0
1.3125 0.046875 0
1.5 0.046875 0
1.125 0.046875 0
1.3125 0.046875 0
1.125 0.09375 0
1.3125 0.09375 0
1.3125 0.046875 0
1.5 0.046875 0
1.3125 0.09375 0
1.5 0.09375 0
0.75 0.09375 0
0.9375 0.09375 0
0.75 0.140625 0
0.9375 0.140625 0
0.9375 0.09375 0
1.125 0.09375 0
0.9375 0.140625 0
1.125 0.140625 0
0.75 0.140625 0
0.9375 0.140625 0
0.75 0.1875 0
0.9375 0.1875 0
0.9375 0.140625 0
1.125 0.140625 0
0.9375 0.1875 0
1.125 0.1875 0
1.125 0.09375 0
1.3125 0.09375 0
1.125 0.140625 0
1.3125 0.140625 0
1.3125 0.09375 0
1.5 0.09375 0
1.3125 0.140625 0
1.5 0.140625 0
1.125 0.140625 0
1.3125 0.140625 0
1.125 0.1875 0
1.3125 0.1875 0
1.3125 0.140625 0
1.5 0.140625 0
1.3125 0.1875 0
1.5 0.1875 0
0 0.1875 0
0.1875 0.1875 0
0 0.234375 0
0.1875 0.234375 0
0.1875 0.1875 0
0.375 0.1875 0
0.1875 0.234375 0
0.375 0.234375 0
0 0.234375 0
0.1875 0.234375 0
0 0.28125 0
0.1875 0.28125 0
0.1875 0.234375 0
0.375 0.234375 0
0.1875 0.28125 0
0.375 0.28125 0
0.375 0.1875 0
0.5625 0.1875 0
0.375 0.234375 0
0.5625 0.234375 0
0.5625 0.1875 0
0.75 0.1875 0
0.5625 0.234375 0
0.75 0.234375 0
0.375 0.234375 0
0.5625 0.234375 0
0.375 0.28125 0
0.5625 0.28125 0
0.5625 0.234375 0
0.75 0.234375 0
0.5625 0.28125 0
0.75 0.28125 0
0 0.28125 0
0.1875 0.28125 0
0 0.328125 0
0.1875 0.328125 0
0.1875 0.28125 0
0.375 0.28125 0
0.1875 0.328125 0
0.375 0.328125 0
0 0.328125 0
0.1875 0.328125 0
0 0.375 0
0.1875 0.375 0
0.1875 0.328125 0
0.375 0.328125 0
0.1875 0.375 0
0.375 0.375 0
0.375 0.28125 0
0.5625 0.28125 0
0.375 0.328125 0
0.5625 0.328125 0
0.5625 0.28125 0
0.75 0.28125 0
0.5625 0.328125 0
0.75 0.328125 0
0.375 0.328125 0
0.5625 0.328125 0
0.375 0.375 0
0.5625 0.375 0
0.5625 0.328125 0
0.75 0.328125 0
0.5625 0.375 0
0.75 0.375 0
0.75 0.1875 0
0.9375 0.1875 0
0.75 0.234375 0
0.9375 0.234375 0
0.9375 0.1875 0
1.125 0.1875 0
0.9375 0.234375 0
1.125 0.234375 0
0.75 0.234375 0
0.9375 0.234375 0
0.75 0.28125 0
0.9375 0.28125 0
0.9375 0.234375 0
1.125 0.234375 0
0.9375 0.28125 0
1.125 0.28125 0
1.125 0.1875 0
1.3125 0.1875 0
1.125 0.234375 0
1.3125 0.234375 0
1.3125 0.1875 0
1.5 0.1875 0
1.3125 0.234375 0
1.5 0.234375 0
1.125 0.234375 0
1.3125 0.234375 0
1.125 0.28125 0
1.3125 0.28125 0
1.3125 0.234375 0
1.5 0.234375 0
1.3125 0.28125 0
1.5 0.28125 0
0.75 0.28125 0
0.9375 0.28125 0
0.75 0.328125 0
0.9375 0.328125 0
0.9375 0.28125 0
1.125 0.28125 0
0.9375 0.328125 0
1.125 0.328125 0
0.75 0.328125 0
0.9375 0.328125 0
0.75 0.375 0
0.9375 0.375 0
0.9375 0.328125 0
1.125 0.328125 0
0.9375 0.375 0
1.125 0.375 0
1.125 0.28125 0
1.3125 0.28125 0
1.125 0.328125 0
1.3125 0.328125 0
1.3125 0.28125 0
1.5 0.28125 0
1.3125 0.328125 0
1.5 0.328125 0
1.125 0.328125 0
1.3125 0.328125 0
1.125 0.375 0
1.3125 0.375 0
1.3125 0.328125 0
1.5 0.328125 0
1.3125 0.375 0
1.5 0.375 0
1.5 0 0
1.6875 0 0
1.5 0.046875 0
1.6875 0.046875 0
1.6875 0 0
1.875 0 0
1.6875 0.046875 0
1.875 0.046875 0
1.5 0.046875 0
1.6875 0.046875 0
1.5 0.09375 0
1.6875 0.09375 0
1.6875 0.046875 0
1.875 0.046875 0
1.6875 0.09375 0
1.875 0.09375 0
1.875 0 0
2.0625 0 0
1.875 0.046875 0
2.0625 0.046875 0
2.0625 0 0
2.25 0 0
2.0625 0.046875 0
2.25 0.046875 0
1.875 0.046875 0
2.0625 0.046875 0
1.875 0.09375 0
2.0625 0.09375 0
2.0625 0.046875 0
2.25 0.046875 0
2.0625 0.09375 0
2.25 0.09375 0
1.5 0.09375 0
1.6875 0.09375 0
1.5 0.140625 0
1.6875 0.140625 0
1.6875 0.09375 0
1.875 0.09375 0
1.6875 0.140625 0
1.875 0.140625 0
1.5 0.140625 0
1.6875 0.140625 0
1.5 0.1875 0
1.6875 0.1875 0
1.6875 0.140625 0
1.875 0.140625 0
1.6875 0.1875 0
1.875 0.1875 0
1.875 0.09375 0
2.0625 0.09375 0
1.875 0.140625 0
2.0625 0.140625 0
2.0625 0.09375 0
2.25 0.09375 0
2.0625 0.140625 0
2.25 0.140625 0
1.875 0.140625 0
2.0625 0.140625 0
1.875 0.1875 0
2.0625 0.1875 0
2.0625 0.140625 0
2.25 0.140625 0
2.0625 0.1875 0
2.25 0.1875 0
2.25 0 0
2.4375 0 0
2.25 0.046875 0
2.4375 0.046875 0
2.4375 0 0
2.625 0 0
2.4375 0.046875 0
2.625 0.046875 0
2.25 0.046875 0
2.4375 0.046875 0
2.25 0.09375 0
2.4375 0.09375 0
2.4375 0.046875 0
2.625 0.046875 0
2.4375 0.09375 0
2.625 0.09375 0
2.625 0 0
2.8125 0 0
2.625 0.046875 0
2.8125 0.046875 0
2.8125 0 0
3 0 0
2.8125 0.046875 0
3 0.046875 0
2.625 0.046875 0
2.8125 0.046875 0
2.625 0.09375 0
2.8125 0.09375 0
2.8125 0.046875 0
3 0.046875 0
2.8125 0.09375 0
3 0.09375 0
2.25 0.09375 0
2.4375 0.09375 0
2.25 0.140625 0
2.4375 0.140625 0
2.4375 0.09375 0
2.625 0.09375 0
2.4375 0.140625 0
2.625 0.140625 0
2.25 0.140625 0
2.4375 0.140625 0
2.25 0.1875 0
2.4375 0.1875 0
2.4375 0.140625 0
2.625 0.140625 0
2.4375 0.1875 0
2.625 0.1875 0
2.625 0.09375 0
2.8125 0.09375 0
2.625 0.140625 0
2.8125 0.140625 0
2.8125 0.09375 0
3 0.09375 0
2.8125 0.140625 0
3 0.140625 0
2.625 0.140625 0
2.8125 0.140625 0
2.625 0.1875 0
2.8125 0.1875 0
2.8125 0.140625 0
3 0.140625 0
2.8125 0.1875 0
3 0.1875 0
1.5 0.1875 0
1.6875 0.1875 0
1.5 0.234375 0
1.6875 0.234375 0
1.6875 0.1875 0
1.875 0.1875 0
1.6875 0.234375 0
1.875 0.234375 0
1.5 0.234375 0
1.6875 0.234375 0
1.5 0.28125 0
1.6875 0.28125 0
1.6875 0.234375 0
1.875 0.234375 0
1.6875 0.28125 0
1.875 0.28125 0
1.875 0.1875 0
2.0625 0.1875 0
1.875 0.234375 0
2.0625 0.234375 0
2.0625 0.1875 0
2.25 0.1875 0
2.0625 0.234375 0
2.25 0.234375 0
1.875 0.234375 0
2.0625 0.234375 0
1.875 0.28125 0
2.0625 0.28125 0
2.0625 0.234375 0
2.25 0.234375 0
2.0625 0.28125 0
2.25 0.28125 0
1.5 0.28125 0
1.6875 0.28125 0
1.5 0.328125 0
1.6875 0.328125 0
1.6875 0.28125 0
1.875 0.28125 0
1.6875 0.328125 0
1.875 0.328125 0
1.5 0.328125 0
1.6875 0.328125 0
1.5 0.375 0
1.6875 0.375 0
1.6875 0.328125 0
1.875 0.328125 0
1.6875 0.375 0
1.875 0.375 0
1.875 0.28125 0
2.0625 0.28125 0
1.875 0.328125 0
2.0625 0.328125 0
2.0625 0.28125 0
2.25 0.28125 0
2.0625 0.328125 0
2.25 0.328125 0
1.875 0.328125 0
2.0625 0.328125 0
1.875 0.375 0
2.0625 0.375 0
2.0625 0.328125 0
2.25 0.328125 0
2.0625 0.375 0
2.25 0.375 0
2.25 0.1875 0
2.4375 0.1875 0
2.25 0.234375 0
2.4375 0.234375 0
2.4375 0.1875 0
2.625 0.1875 0
2.4375 0.234375 0
2.625 0.234375 0
2.25 0.234375 0
2.4375 0.234375 0
2.25 0.28125 0
2.4375 0.28125 0
2.4375 0.234375 0
2.625 0.234375 0
2.4375 0.28125 0
2.625 0.28125 0
2.625 0.1875 0
2.8125 0.1875 0
2.625 0.234375 0
2.8125 0.234375 0
2.8125 0.1875 0
3 0.1875 0
2.8125 0.234375 0
3 0.234375 0
2.625 0.234375 0
2.8125 0.234375 0
2.625 0.28125 0
2.8125 0.28125 0
2.8125 0.234375 0
3 0.234375 0
2.8125 0.28125 0
3 0.28125 0
2.25 0.28125 0
2.4375 0.28125 0
2.25 0.328125 0
2.4375 0.328125 0
2.4375 0.28125 0
2.625 0.28125 0
2.4375 0.328125 0
2.625 0.328125 0
2.25 0.328125 0
2.4375 0.328125 0
2.25 0.375 0
2.4375 0.375 0
2.4375 0.328125 0
2.625 0.328125 0
2.4375 0.375 0
2.625 0.375 0
2.625 0.28125 0
2.8125 0.28125 0
2.625 0.328125 0
2.8125 0.328125 0
2.8125 0.28125 0
3 0.28125 0
2.8125 0.328125 0
3 0.328125 0
2.625 0.328125 0
2.8125 0.328125 0
2.625 0.375 0
2.8125 0.375 0
2.8125 0.328125 0
3 0.328125 0
2.8125 0.375 0
3 0.375 0
0 0.375 0
0.1875 0.375 0
0 0.421875 0
0.1875 0.421875 0
0.1875 0.375 0
0.375 0.375 0
0.1875 0.421875 0
0.375 0.421875 0
0 0.421875 0
0.1875 0.421875 0
0 0.46875 0
0.1875 0.46875 0
0.1875 0.421875 0
0.375 0.421875 0
0.1875 0.46875 0
0.375 0.46875 0
0.375 0.375 0
0.5625 0.375 0
0.375 0.421875 0
0.5625 0.421875 0
0.5625 0.375 0
0.75 0.375 0
0.5625 0.421875 0
0.75 0.421875 0
0.375 0.421875 0
0.5625 0.421875 0
0.375 0.46875 0
0.5625 0.46875 0
0.5625 0.421875 0
0.75 0.421875 0
0.5625 0.46875 0
0.75 0.46875 0
0 0.46875 0
0.1875 0.46875 0
0 0.515625 0
0.1875 0.515625 0
0.1875 0.46875 0
0.375 0.46875 0
0.1875 0.515625 0
0.375 0.515625 0
0 0.515625 0
0.1875 0.515625 0
0 0.5625 0
0.1875 0.5625 0
0.1875 0.515625 0
0.375 0.515625 0
0.1875 0.5625 0
0.375 0.5625 0
0.375 0.46875 0
0.5625 0.46875 0
0.375 0.515625 0
0.5625 0.515625 0
0.5625 0.46875 0
0.75 0.46875 0
0.5625 0.515625 0
0.75 0.515625 0
0.375 0.515625 0
0.5625 0.515625 0
0.375 0.5625 0
0.5625 0.5625 0
0.5625 0.515625 0
0.75 0.515625 0
0.5625 0.5625 0
0.75 0.5625 0
0.75 0.375 0
0.9375 0.375 0
0.75 0.421875 0
0.9375 0.421875 0
0.9375 0.375 0
1.125 0.375 0
0.9375 0.421875 0
1.125 0.421875 0
0.75 0.421875 0
0.9375 0.421875 0
0.75 0.46875 0
0.9375 0.46875 0
0.9375 0.421875 0
1.125 0.421875 0
0.9375 0.46875 0
1.125 0.46875 0
1.125 0.375 0
1.3125 0.375 0
1.125 0.421875 0
1.3125 0.421875 0
1.3125 0.375 0
1.5 0.375 0
1.3125 0.421875 0
1.5 0.421875 0
1.125 0.421875 0
1.3125 0.421875 0
1.125 0.46875 0
1.3125 0.46875 0
1.3125 0.421875 0
1.5 0.421875 0
1.3125 0.46875 0
1.5 0.46875 0
0.75 0.46875 0
0.9375 0.46875 0
0.75 0.515625 0
0.9375 0.515625 0
0.9375 0.46875 0
1.125 0.46875 0
0.9375 0.515625 0
1.125 0.515625 0
0.75 0.515625 0
0.9375 0.515625 0
[...]
POINT_DATA 16384
SCALARS x_displacement double 1
LOOKUP_TABLE default
0 0.0335082 0 0.0299715 0.0335082 0.0590913 0.0299715 0.0574464 0 0.0299715 0 0.0275449 0.0299715 0.0574464 0.0275449 0.0546999 0.0590913 0.0750963 0.0574464 0.0738178 0.0750963 0.0813485 0.0738178 0.0805631 0.0574464 0.0738178 0.0546999 0.0718503 0.0738178 0.0805631 0.0718503 0.0793344 0 0.0275449 0 0.0255519 0.0275449 0.0546999 0.0255519 0.0511568 0 0.0255519 0 0.0238787 0.0255519 0.0511568 0.0238787 0.0475553 0.0546999 0.0718503 0.0511568 0.0690926 0.0718503 0.0793344 0.0690926 0.0777005 0.0511568 0.0690926 0.0475553 0.065397 0.0690926 0.0777005 0.065397 0.0757933 0.0813485 0.0872016 0.0805631 0.0868772 0.0872016 0.0936185 0.0868772 0.0936337 0.0805631 0.0868772 0.0793344 0.0863143 0.0868772 0.0936337 0.0863143 0.0934661 0.0936185 0.100129 0.0936337 0.100286 0.100129 0.106356 0.100286 0.106577 0.0936337 0.100286 0.0934661 0.100315 0.100286 0.106577 0.100315 0.106701 0.0793344 0.0863143 0.0777005 0.0855531 0.0863143 0.0934661 0.0855531 0.0931438 0.0777005 0.0855531 0.0757933 0.0846408 0.0855531 0.0931438 0.0846408 0.0926888 0.0934661 0.100315 0.0931438 0.100226 0.100315 0.106701 0.100226 0.106734 0.0931438 0.100226 0.0926888 0.100032 0.100226 0.106734 0.100032 0.106684 0 0.0238787 0 0.0224631 0.0238787 0.0475553 0.0224631 0.0441858 0 0.0224631 0 0.0212193 0.0224631 0.0441858 0.0212193 0.041515 0.0475553 0.065397 0.0441858 0.0616441 0.065397 0.0757933 0.0616441 0.0738481 0.0441858 0.0616441 0.041515 0.0586384 0.0616441 0.0738481 0.0586384 0.0719011 0 0.0212193 0 0.0201716 0.0212193 0.041515 0.0201716 0.0393968 0 0.0201716 0 0.0193091 0.0201716 0.0393968 0.0193091 0.0377088 0.041515 0.0586384 0.0393968 0.0562357 0.0586384 0.0719011 0.0562357 0.0700792 0.0393968 0.0562357 0.0377088 0.0542736 0.0562357 0.0700792 0.0542736 0.0684313 0.0757933 0.0846408 0.0738481 0.0836002 0.0846408 0.0926888 0.0836002 0.0921289 0.0738481 0.0836002 0.0719011 0.0824886 0.0836002 0.0921289 0.0824886 0.0914856 0.0926888 0.100032 0.0921289 0.0997477 0.100032 0.106684 0.0997477 0.106559 0.0921289 0.0997477 0.0914856 0.0993863 0.0997477 0.106559 0.0993863 0.106367 0.0719011 0.0824886 0.0700792 0.0813393 0.0824886 0.0914856 0.0813393 0.0907831 0.0700792 0.0813393 0.0684313 0.0801936 0.0813393 0.0907831 0.0801936 0.0900407 0.0914856 0.0993863 0.0907831 0.0989614 0.0993863 0.106367 0.0989614 0.106118 0.0907831 0.0989614 0.0900407 0.0984867 0.0989614 0.106118 0.0984867 0.105818 0.106356 0.112138 0.106577 0.112377 0.112138 0.117402 0.112377 0.11763 0.106577 0.112377 0.106701 0.112541 0.112377 0.11763 0.112541 0.117799 0.117402 0.122125 0.11763 0.122324 0.122125 0.12631 0.122324 0.126467 0.11763 0.122324 0.117799 0.122475 0.122324 0.126467 0.122475 0.126588 0.106701 0.112541 0.106734 0.112632 0.112541 0.117799 0.112632 0.117911 0.106734 0.112632 0.106684 0.112658 0.112632 0.117911 0.112658 0.117969 0.117799 0.122475 0.117911 0.122582 0.122475 0.126588 0.122582 0.126674 0.117911 0.122582 0.117969 0.122646 0.122582 0.126674 0.122646 0.126726 0.12631 0.129977 0.126467 0.130087 0.129977 0.133158 0.130087 0.133218 0.126467 0.130087 0.126588 0.130169 0.130087 0.133218 0.130169 0.133257 0.133158 0.135891 0.133218 0.135901 0.135891 0.138217 0.135901 0.138179 0.133218 0.135901 0.133257 0.135896 0.135901 0.138179 0.135896 0.138131 0.126588 0.130169 0.126674 0.130224 0.130169 0.133257 0.130224 0.133276 0.126674 0.130224 0.126726 0.130252 0.130224 0.133276 0.130252 0.133274 0.133257 0.135896 0.133276 0.135876 0.135896 0.138131 0.135876 0.138072 0.133276 0.135876 0.133274 0.13584 0.135876 0.138072 0.13584 0.138001 0.106684 0.112658 0.106559 0.112621 0.112658 0.117969 0.112621 0.117977 0.106559 0.112621 0.106367 0.112529 0.112621 0.117977 0.112529 0.117938 0.117969 0.122646 0.117977 0.122669 0.122646 0.126726 0.122669 0.126745 0.117977 0.122669 0.117938 0.122654 0.122669 0.126745 0.122654 0.126733 0.106367 0.112529 0.106118 0.112385 0.112529 0.117938 0.112385 0.117856 0.106118 0.112385 0.105818 0.112197 0.112385 0.117856 0.112197 0.117735 0.117938 0.122654 0.117856 0.122602 0.122654 0.126733 0.122602 0.126691 0.117856 0.122602 0.117735 0.122517 0.122602 0.126691 0.122517 0.126621 0.126726 0.130252 0.126745 0.130255 0.130252 0.133274 0.130255 0.133252 0.126745 0.130255 0.126733 0.130232 0.130255 0.133252 0.130232 0.13321 0.133274 0.13584 0.133252 0.135789 0.13584 0.138001 0.135789 0.13792 0.133252 0.135789 0.13321 0.135723 0.135789 0.13792 0.135723 0.137826 0.126733 0.130232 0.126691 0.130186 0.130232 0.13321 0.130186 0.133149 0.126691 0.130186 0.126621 0.130116 0.130186 0.133149 0.130116 0.133069 0.13321 0.135723 0.133149 0.135642 0.135723 0.137826 0.135642 0.137721 0.133149 0.135642 0.133069 0.135545 0.135642 0.137721 0.135545 0.137605 0 0.0193091 0 0.0186072 0.0193091 0.0377088 0.0186072 0.0363547 0 0.0186072 0 0.0180381 0.0186072 0.0363547 0.0180381 0.0352612 0.0377088 0.0542736 0.0363547 0.0526514 0.0542736 0.0684313 0.0526514 0.0669617 0.0363547 0.0526514 0.0352612 0.0512991 0.0526514 0.0669617 0.0512991 0.0656597 0 0.0180381 0 0.0175765 0.0180381 0.0352612 0.0175765 0.0343719 0 0.0175765 0 0.0172007 0.0175765 0.0343719 0.0172007 0.0336437 0.0352612 0.0512991 0.0343719 0.0501641 0.0512991 0.0656597 0.0501641 0.0645095 0.0343719 0.0501641 0.0336437 0.0492062 0.0501641 0.0645095 0.0492062 0.0634945 0.0684313 0.0801936 0.0669617 0.0790841 0.0801936 0.0900407 0.0790841 0.089277 0.0669617 0.0790841 0.0656597 0.0780307 0.0790841 0.089277 0.0780307 0.0885088 0.0900407 0.0984867 0.089277 0.0979742 0.0984867 0.105818 0.0979742 0.105477 0.089277 0.0979742 0.0885088 0.0974351 0.0979742 0.105477 0.0974351 0.105102 0.0656597 0.0780307 0.0645095 0.0770438 0.0780307 0.0885088 0.0770438 0.0877499 0.0645095 0.0770438 0.0634945 0.0761276 0.0770438 0.0877499 0.0761276 0.0870105 0.0885088 0.0974351 0.0877499 0.0968794 0.0974351 0.105102 0.0968794 0.104701 0.0877499 0.0968794 0.0870105 0.0963158 0.0968794 0.104701 0.0963158 0.10428 0 0.0172007 0 0.016893 0.0172007 0.0336437 0.016893 0.0330431 0 0.016893 0 0.0166394 0.016893 0.0330431 0.0166394 0.0325441 0.0336437 0.0492062 0.0330431 0.0483934 0.0492062 0.0634945 0.0483934 0.0625987 0.0330431 0.0483934 0.0325441 0.0476999 0.0483934 0.0625987 0.0476999 0.0618071 0 0.0166394 0 0.0164288 0.0166394 0.0325441 0.0164288 0.0321264 0 0.0164288 0 0.0162525 0.0164288 0.0321264 0.0162525 0.0317738 0.0325441 0.0476999 0.0321264 0.047105 0.0476999 0.0618071 0.047105 0.0611065 0.0321264 0.047105 0.0317738 0.046592 0.047105 0.0611065 0.046592 0.060485 0.0634945 0.0761276 0.0625987 0.0752822 0.0761276 0.0870105 0.0752822 0.0862978 0.0625987 0.0752822 0.0618071 0.0745054 0.0752822 0.0862978 0.0745054 0.0856166 0.0870105 0.0963158 0.0862978 0.0957519 0.0963158 0.10428 0.0957519 0.103845 0.0862978 0.0957519 0.0856166 0.0951938 0.0957519 0.103845 0.0951938 0.103401 0.0618071 0.0745054 0.0611065 0.0737932 0.0745054 0.0856166 0.0737932 0.0849694 0.0611065 0.0737932 0.060485 0.0731413 0.0737932 0.0849694 0.0731413 0.0843576 0.0856166 0.0951938 0.0849694 0.094646 0.0951938 0.103401 0.094646 0.102953 0.0849694 0.094646 0.0843576 0.0941123 0.094646 0.102953 0.0941123 0.102505 0.105818 0.112197 0.105477 0.111969 0.112197 0.117735 0.111969 0.117578 0.105477 0.111969 0.105102 0.111707 0.111969 0.117578 0.111707 0.117389 0.117735 0.122517 0.117578 0.122401 0.122517 0.126621 0.122401 0.126525 0.117578 0.122401 0.117389 0.122257 0.122401 0.126525 0.122257 0.126404 0.105102 0.111707 0.104701 0.111415 0.111707 0.117389 0.111415 0.117172 0.104701 0.111415 0.10428 0.1111 0.111415 0.117172 0.1111 0.11693 0.117389 0.122257 0.117172 0.122087 0.122257 0.126404 0.122087 0.12626 0.117172 0.122087 0.11693 0.121893 0.122087 0.12626 0.121893 0.126095 0.126621 0.130116 0.126525 0.130024 0.130116 0.133069 0.130024 0.132971 0.126525 0.130024 0.126404 0.129911 0.130024 0.132971 0.129911 0.132856 0.133069 0.135545 0.132971 0.135435 0.135545 0.137605 0.135435 0.137476 0.132971 0.135435 0.132856 0.13531 0.135435 0.137476 0.13531 0.137337 0.126404 0.129911 0.12626 0.129779 0.129911 0.132856 0.129779 0.132724 0.12626 0.129779 0.126095 0.129628 0.129779 0.132724 0.129628 0.132577 0.132856 0.13531 0.132724 0.135171 0.13531 0.137337 0.135171 0.137186 0.132724 0.135171 0.132577 0.135018 0.135171 0.137186 0.135018 0.137024 0.10428 0.1111 0.103845 0.110764 0.1111 0.11693 0.110764 0.116666 0.103845 0.110764 0.103401 0.110413 0.110764 0.116666 0.110413 0.116384 0.11693 0.121893 0.116666 0.121678 0.121893 0.126095 0.121678 0.12591 0.116666 0.121678 0.116384 0.121445 0.121678 0.12591 0.121445 0.125708 0.103401 0.110413 0.102953 0.110051 0.110413 0.116384 0.110051 0.116087 0.102953 0.110051 0.102505 0.10968 0.110051 0.116087 0.10968 0.115778 0.116384 0.121445 0.116087 0.121195 0.121445 0.125708 0.121195 0.12549 0.116087 0.121195 0.115778 0.120931 0.121195 0.12549 0.120931 0.125257 0.126095 0.129628 0.12591 0.129459 0.129628 0.132577 0.129459 0.132414 0.12591 0.129459 0.125708 0.129275 0.129459 0.132414 0.129275 0.132236 0.132577 0.135018 0.132414 0.134853 0.135018 0.137024 0.134853 0.136851 0.132414 0.134853 0.132236 0.134675 0.134853 0.136851 0.134675 0.136667 0.125708 0.129275 0.12549 0.129075 0.129275 0.132236 0.129075 0.132045 0.12549 0.129075 0.125257 0.128862 0.129075 0.132045 0.128862 0.131842 0.132236 0.134675 0.132045 0.134486 0.134675 0.136667 0.134486 0.136473 0.132045 0.134486 0.131842 0.134284 0.134486 0.136473 0.134284 0.136269 0.138217 0.14018 0.138179 0.140098 0.14018 0.141823 0.140098 0.141699 0.138179 0.140098 0.138131 0.140008 0.140098 0.141699 0.140008 0.141572 0.141823 0.143185 0.141699 0.143025 0.143185 0.144307 0.143025 0.144115 0.141699 0.143025 0.141572 0.142864 0.143025 0.144115 0.142864 0.143922 0.138131 0.140008 0.138072 0.139911 0.140008 0.141572 0.139911 0.14144 0.138072 0.139911 0.138001 0.139807 0.139911 0.14144 0.139807 0.141302 0.141572 0.142864 0.14144 0.142699 0.142864 0.143922 0.142699 0.143729 0.14144 0.142699 0.141302 0.142532 0.142699 0.143729 0.142532 0.143534 0.144307 0.145222 0.144115 0.145003 0.145222 0.145964 0.145003 0.145721 0.144115 0.145003 0.143922 0.144784 0.145003 0.145721 0.144784 0.145479 0.145964 0.14656 0.145721 0.146297 0.14656 0.147035 0.146297 0.146756 0.145721 0.146297 0.145479 0.146036 0.146297 0.146756 0.146036 0.146479 0.143922 0.144784 0.143729 0.144565 0.144784 0.145479 0.144565 0.145238 0.143729 0.144565 0.143534 0.144346 0.144565 0.145238 0.144346 0.144998 0.145479 0.146036 0.145238 0.145777 0.146036 0.146479 0.145777 0.146204 0.145238 0.145777 0.144998 0.145518 0.145777 0.146204 0.145518 0.14593 0.138001 0.139807 0.13792 0.139694 0.139807 0.141302 0.139694 0.141159 0.13792 0.139694 0.137826 0.139572 0.139694 0.141159 0.139572 0.14101 0.141302 0.142532 0.141159 0.142361 0.142532 0.143534 0.142361 0.143337 0.141159 0.142361 0.14101 0.142185 0.142361 0.143337 0.142185 0.143138 0.137826 0.139572 0.137721 0.139442 0.139572 0.14101 0.139442 0.140855 0.137721 0.139442 0.137605 0.139303 0.139442 0.140855 0.139303 0.140693 0.14101 0.142185 0.140855 0.142006 0.142185 0.143138 0.142006 0.142936 0.140855 0.142006 0.140693 0.141821 0.142006 0.142936 0.141821 0.14273 0.143534 0.144346 0.143337 0.144126 0.144346 0.144998 0.144126 0.144758 0.143337 0.144126 0.143138 0.143905 0.144126 0.144758 0.143905 0.144517 0.144998 0.145518 0.144758 0.14526 0.145518 0.14593 0.14526 0.145657 0.144758 0.14526 0.144517 0.145002 0.14526 0.145657 0.145002 0.145385 0.143138 0.143905 0.142936 0.143681 0.143905 0.144517 0.143681 0.144275 0.142936 0.143681 0.14273 0.143456 0.143681 0.144275 0.143456 0.144032 0.144517 0.145002 0.144275 0.144744 0.145002 0.145385 0.144744 0.145112 0.144275 0.144744 0.144032 0.144485 0.144744 0.145112 0.144485 0.14484 0.147035 0.147412 0.146756 0.14712 0.147412 0.147708 0.14712 0.147405 0.146756 0.14712 0.146479 0.14683 0.14712 0.147405 0.14683 0.147104 0.147708 0.147939 0.147405 0.147627 0.147939 0.148118 0.147627 0.147799 0.147405 0.147627 0.147104 0.147318 0.147627 0.147799 0.147318 0.147483 0.146479 0.14683 0.146204 0.146541 0.14683 0.147104 0.146541 0.146805 0.146204 0.146541 0.14593 0.146254 0.146541 0.146805 0.146254 0.146507 0.147104 0.147318 0.146805 0.14701 0.147318 0.147483 0.14701 0.147169 0.146805 0.14701 0.146507 0.146704 0.14701 0.147169 0.146704 0.146855 0.148118 0.148255 0.147799 0.147932 0.148255 0.148359 0.147932 0.148032 0.147799 0.147932 0.147483 0.14761 0.147932 0.148032 0.14761 0.147707 0.148359 0.148438 0.148032 0.148109 0.148438 0.148498 0.148109 0.148166 0.148032 0.148109 0.147707 0.14778 0.148109 0.148166 0.14778 0.147835 0.147483 0.14761 0.147169 0.14729 0.14761 0.147707 0.14729 0.147383 0.147169 0.14729 0.146855 0.146971 0.14729 0.147383 0.146971 0.147059 0.147707 0.14778 0.147383 0.147453 0.14778 0.147835 0.147453 0.147505 0.147383 0.147453 0.147059 0.147126 0.147453 0.147505 0.147126 0.147176 0.14593 0.146254 0.145657 0.145968 0.146254 0.146507 0.145968 0.146211 0.145657 0.145968 0.145385 0.145683 0.145968 0.146211 0.145683 0.145916 0.146507 0.146704 0.146211 0.146399 0.146704 0.146855 0.146399 0.146543 0.146211 0.146399 0.145916 0.146095 0.146399 0.146543 0.146095 0.146232 0.145385 0.145683 0.145112 0.145399 0.145683 0.145916 0.145399 0.145621 0.145112 0.145399 0.14484 0.145115 0.145399 0.145621 0.145115 0.145326 0.145916 0.146095 0.145621 0.145791 0.146095 0.146232 0.145791 0.145922 0.145621 0.145791 0.145326 0.145489 0.145791 0.145922 0.145489 0.145612 0.146855 0.146971 0.146543 0.146654 0.146971 0.147059 0.146654 0.146737 0.146543 0.146654 0.146232 0.146337 0.146654 0.146737 0.146337 0.146416 0.147059 0.147126 0.146737 0.1468 0.147126 0.147176 0.1468 0.146848 0.146737 0.1468 0.146416 0.146476 0.1468 0.146848 0.146476 0.14652 0.146232 0.146337 0.145922 0.146021 0.146337 0.146416 0.146021 0.146095 0.145922 0.146021 0.145612 0.145705 0.146021 0.146095 0.145705 0.145775 0.146416 0.146476 0.146095 0.146151 0.146476 0.14652 0.146151 0.146193 0.146095 0.146151 0.145775 0.145827 0.146151 0.146193 0.145827 0.145866 0.137605 0.139303 0.137476 0.139155 0.139303 0.140693 0.139155 0.140524 0.137476 0.139155 0.137337 0.138998 0.139155 0.140524 0.138998 0.140349 0.140693 0.141821 0.140524 0.141632 0.141821 0.14273 0.141632 0.142521 0.140524 0.141632 0.140349 0.141437 0.141632 0.142521 0.141437 0.142308 0.137337 0.138998 0.137186 0.138832 0.138998 0.140349 0.138832 0.140166 0.137186 0.138832 0.137024 0.138657 0.138832 0.140166 0.138657 0.139975 0.140349 0.141437 0.140166 0.141237 0.141437 0.142308 0.141237 0.14209 0.140166 0.141237 0.139975 0.141031 0.141237 0.14209 0.141031 0.141868 0.14273 0.143456 0.142521 0.143228 0.143456 0.144032 0.143228 0.143787 0.142521 0.143228 0.142308 0.142998 0.143228 0.143787 0.142998 0.143541 0.144032 0.144485 0.143787 0.144226 0.144485 0.14484 0.144226 0.144567 0.143787 0.144226 0.143541 0.143965 0.144226 0.144567 0.143965 0.144293 0.142308 0.142998 0.14209 0.142764 0.142998 0.143541 0.142764 0.143292 0.14209 0.142764 0.141868 0.142527 0.142764 0.143292 0.142527 0.143041 0.143541 0.143965 0.143292 0.143702 0.143965 0.144293 0.143702 0.144018 0.143292 0.143702 0.143041 0.143438 0.143702 0.144018 0.143438 0.143742 0.137024 0.138657 0.136851 0.138472 0.138657 0.139975 0.138472 0.139778 0.136851 0.138472 0.136667 0.138279 0.138472 0.139778 0.138279 0.139573 0.139975 0.141031 0.139778 0.140819 0.141031 0.141868 0.140819 0.141642 0.139778 0.140819 0.139573 0.140601 0.140819 0.141642 0.140601 0.14141 0.136667 0.138279 0.136473 0.138077 0.138279 0.139573 0.138077 0.13936 0.136473 0.138077 0.136269 0.137866 0.138077 0.13936 0.137866 0.13914 0.139573 0.140601 0.13936 0.140376 0.140601 0.14141 0.140376 0.141174 0.13936 0.140376 0.13914 0.140146 0.140376 0.141174 0.140146 0.140932 0.141868 0.142527 0.141642 0.142286 0.142527 0.143041 0.142286 0.142787 0.141642 0.142286 0.14141 0.142042 0.142286 0.142787 0.142042 0.142529 0.143041 0.143438 0.142787 0.143171 0.143438 0.143742 0.143171 0.143465 0.142787 0.143171 0.142529 0.142903 0.143171 0.143465 0.142903 0.143186 0.14141 0.142042 0.141174 0.141793 0.142042 0.142529 0.141793 0.142269 0.141174 0.141793 0.140932 0.14154 0.141793 0.142269 0.14154 0.142005 0.142529 0.142903 0.142269 0.142631 0.142903 0.143186 0.142631 0.142904 0.142269 0.142631 0.142005 0.142358 0.142631 0.142904 0.142358 0.142621 0.14484 0.145115 0.144567 0.14483 0.145115 0.145326 0.14483 0.145032 0.144567 0.14483 0.144293 0.144545 0.14483 0.145032 0.144545 0.144738 0.145326 0.145489 0.145032 0.145186 0.145489 0.145612 0.145186 0.145303 0.145032 0.145186 0.144738 0.144884 0.145186 0.145303 0.144884 0.144993 0.144293 0.144545 0.144018 0.14426 0.144545 0.144738 0.14426 0.144443 0.144018 0.14426 0.143742 0.143974 0.14426 0.144443 0.143974 0.144148 0.144738 0.144884 0.144443 0.144581 0.144884 0.144993 0.144581 0.144684 0.144443 0.144581 0.144148 0.144278 0.144581 0.144684 0.144278 0.144375 0.145612 0.145705 0.145303 0.14539 0.145705 0.145775 0.14539 0.145456 0.145303 0.14539 0.144993 0.145075 0.14539 0.145456 0.145075 0.145136 0.145775 0.145827 0.145456 0.145504 0.145827 0.145866 0.145504 0.14554 0.145456 0.145504 0.145136 0.145181 0.145504 0.14554 0.145181 0.145214 0.144993 0.145075 0.144684 0.144761 0.145075 0.145136 0.144761 0.144817 0.144684 0.144761 0.144375 0.144446 0.144761 0.144817 0.144446 0.144498 0.145136 0.145181 0.144817 0.144858 0.145181 0.145214 0.144858 0.144888 0.144817 0.144858 0.144498 0.144536 0.144858 0.144888 0.144536 0.144563 0.143742 0.143974 0.143465 0.143686 0.143974 0.144148 0.143686 0.143852 0.143465 0.143686 0.143186 0.143398 0.143686 0.143852 0.143398 0.143555 0.144148 0.144278 0.143852 0.143975 0.144278 0.144375 0.143975 0.144066 0.143852 0.143975 0.143555 0.143671 0.143975 0.144066 0.143671 0.143756 0.143186 0.143398 0.142904 0.143108 0.143398 0.143555 0.143108 0.143257 0.142904 0.143108 0.142621 0.142816 0.143108 0.143257 0.142816 0.142958 0.143555 0.143671 0.143257 0.143367 0.143671 0.143756 0.143367 0.143445 0.143257 0.143367 0.142958 0.143061 0.143367 0.143445 0.143061 0.143134 0.144375 0.144446 0.144066 0.144131 0.144446 0.144498 0.144131 0.144179 0.144066 0.144131 0.143756 0.143816 0.144131 0.144179 0.143816 0.14386 0.144498 0.144536 0.144179 0.144213 0.144536 0.144563 0.144213 0.144237 0.144179 0.144213 0.14386 0.14389 0.144213 0.144237 0.14389 0.143912 0.143756 0.143816 0.143445 0.143501 0.143816 0.14386 0.143501 0.14354 0.143445 0.143501 0.143134 0.143185 0.143501 0.14354 0.143185 0.14322 0.14386 0.14389 0.14354 0.143567 0.14389 0.143912 0.143567 0.143586 0.14354 0.143567 0.14322 0.143244 0.143567 0.143586 0.143244 0.14326 0 0.0162525 0 0.0161035 0.0162525 0.0317738 0.0161035 0.0314738 0 0.0161035 0 0.0159766 0.0161035 0.0314738 0.0159766 0.0312165 0.0317738 0.046592 0.0314738 0.0461469 0.046592 0.060485 0.0461469 0.0599322 0.0314738 0.0461469 0.0312165 0.0457585 0.0461469 0.0599322 0.0457585 0.0594388 0 0.0159766 0 0.0158673 0.0159766 0.0312165 0.0158673 0.0309938 0 0.0158673 0 0.0157724 0.0158673 0.0309938 0.0157724 0.0307994 0.0312165 0.0457585 0.0309938 0.0454176 0.0457585 0.0594388 0.0454176 0.0589972 0.0309938 0.0454176 0.0307994 0.0451164 0.0454176 0.0589972 0.0451164 0.0586003 0.060485 0.0731413 0.0599322 0.0725448 0.0731413 0.0843576 0.0725448 0.0837811 0.0599322 0.0725448 0.0594388 0.0719989 0.0725448 0.0837811 0.0719989 0.0832392 0.0843576 0.0941123 0.0837811 0.0935953 0.0941123 0.102505 0.0935953 0.102061 0.0837811 0.0935953 0.0832392 0.0930966 0.0935953 0.102061 0.0930966 0.101622 0.0594388 0.0719989 0.0589972 0.0714989 0.0719989 0.0832392 0.0714989 0.0827307 0.0589972 0.0714989 0.0586003 0.0710404 0.0714989 0.0827307 0.0710404 0.0822541 0.0832392 0.0930966 0.0827307 0.0926174 0.0930966 0.101622 0.0926174 0.101191 0.0827307 0.0926174 0.0822541 0.0921581 0.0926174 0.101191 0.0921581 0.100769 0 0.0157724 0 0.0156891 0.0157724 0.0307994 0.0156891 0.0306283 0 0.0156891 0 0.0156153 0.0156891 0.0306283 0.0156153 0.0304764 0.0307994 0.0451164 0.0306283 0.0448486 0.0451164 0.0586003 0.0448486 0.0582423 0.0306283 0.0448486 0.0304764 0.0446091 0.0448486 0.0582423 0.04460