# vtk DataFile Version 3.0
#This file was generated by the deal.II library on 2022/1/6 at 22:43:29
ASCII
DATASET UNSTRUCTURED_GRID

POINTS 16384 double
0 0 0
0.1875 0 0
0 0.046875 0
0.1875 0.046875 0
0.1875 0 0
0.375 0 0
0.1875 0.046875 0
0.375 0.046875 0
0 0.046875 0
0.1875 0.046875 0
0 0.09375 0
0.1875 0.09375 0
0.1875 0.046875 0
0.375 0.046875 0
0.1875 0.09375 0
0.375 0.09375 0
0.375 0 0
0.5625 0 0
0.375 0.046875 0
0.5625 0.046875 0
0.5625 0 0
0.75 0 0
0.5625 0.046875 0
0.75 0.046875 0
0.375 0.046875 0
0.5625 0.046875 0
0.375 0.09375 0
0.5625 0.09375 0
0.5625 0.046875 0
0.75 0.046875 0
0.5625 0.09375 0
0.75 0.09375 0
0 0.09375 0
0.1875 0.09375 0
0 0.140625 0
0.1875 0.140625 0
0.1875 0.09375 0
0.375 0.09375 0
0.1875 0.140625 0
0.375 0.140625 0
0 0.140625 0
0.1875 0.140625 0
0 0.1875 0
0.1875 0.1875 0
0.1875 0.140625 0
0.375 0.140625 0
0.1875 0.1875 0
0.375 0.1875 0
0.375 0.09375 0
0.5625 0.09375 0
0.375 0.140625 0
0.5625 0.140625 0
0.5625 0.09375 0
0.75 0.09375 0
0.5625 0.140625 0
0.75 0.140625 0
0.375 0.140625 0
0.5625 0.140625 0
0.375 0.1875 0
0.5625 0.1875 0
0.5625 0.140625 0
0.75 0.140625 0
0.5625 0.1875 0
0.75 0.1875 0
0.75 0 0
0.9375 0 0
0.75 0.046875 0
0.9375 0.046875 0
0.9375 0 0
1.125 0 0
0.9375 0.046875 0
1.125 0.046875 0
0.75 0.046875 0
0.9375 0.046875 0
0.75 0.09375 0
0.9375 0.09375 0
0.9375 0.046875 0
1.125 0.046875 0
0.9375 0.09375 0
1.125 0.09375 0
1.125 0 0
1.3125 0 0
1.125 0.046875 0
1.3125 0.046875 0
1.3125 0 0
1.5 0 0
1.3125 0.046875 0
1.5 0.046875 0
1.125 0.046875 0
1.3125 0.046875 0
1.125 0.09375 0
1.3125 0.09375 0
1.3125 0.046875 0
1.5 0.046875 0
1.3125 0.09375 0
1.5 0.09375 0
0.75 0.09375 0
0.9375 0.09375 0
0.75 0.140625 0
0.9375 0.140625 0
0.9375 0.09375 0
1.125 0.09375 0
0.9375 0.140625 0
1.125 0.140625 0
0.75 0.140625 0
0.9375 0.140625 0
0.75 0.1875 0
0.9375 0.1875 0
0.9375 0.140625 0
1.125 0.140625 0
0.9375 0.1875 0
1.125 0.1875 0
1.125 0.09375 0
1.3125 0.09375 0
1.125 0.140625 0
1.3125 0.140625 0
1.3125 0.09375 0
1.5 0.09375 0
1.3125 0.140625 0
1.5 0.140625 0
1.125 0.140625 0
1.3125 0.140625 0
1.125 0.1875 0
1.3125 0.1875 0
1.3125 0.140625 0
1.5 0.140625 0
1.3125 0.1875 0
1.5 0.1875 0
0 0.1875 0
0.1875 0.1875 0
0 0.234375 0
0.1875 0.234375 0
0.1875 0.1875 0
0.375 0.1875 0
0.1875 0.234375 0
0.375 0.234375 0
0 0.234375 0
0.1875 0.234375 0
0 0.28125 0
0.1875 0.28125 0
0.1875 0.234375 0
0.375 0.234375 0
0.1875 0.28125 0
0.375 0.28125 0
0.375 0.1875 0
0.5625 0.1875 0
0.375 0.234375 0
0.5625 0.234375 0
0.5625 0.1875 0
0.75 0.1875 0
0.5625 0.234375 0
0.75 0.234375 0
0.375 0.234375 0
0.5625 0.234375 0
0.375 0.28125 0
0.5625 0.28125 0
0.5625 0.234375 0
0.75 0.234375 0
0.5625 0.28125 0
0.75 0.28125 0
0 0.28125 0
0.1875 0.28125 0
0 0.328125 0
0.1875 0.328125 0
0.1875 0.28125 0
0.375 0.28125 0
0.1875 0.328125 0
0.375 0.328125 0
0 0.328125 0
0.1875 0.328125 0
0 0.375 0
0.1875 0.375 0
0.1875 0.328125 0
0.375 0.328125 0
0.1875 0.375 0
0.375 0.375 0
0.375 0.28125 0
0.5625 0.28125 0
0.375 0.328125 0
0.5625 0.328125 0
0.5625 0.28125 0
0.75 0.28125 0
0.5625 0.328125 0
0.75 0.328125 0
0.375 0.328125 0
0.5625 0.328125 0
0.375 0.375 0
0.5625 0.375 0
0.5625 0.328125 0
0.75 0.328125 0
0.5625 0.375 0
0.75 0.375 0
0.75 0.1875 0
0.9375 0.1875 0
0.75 0.234375 0
0.9375 0.234375 0
0.9375 0.1875 0
1.125 0.1875 0
0.9375 0.234375 0
1.125 0.234375 0
0.75 0.234375 0
0.9375 0.234375 0
0.75 0.28125 0
0.9375 0.28125 0
0.9375 0.234375 0
1.125 0.234375 0
0.9375 0.28125 0
1.125 0.28125 0
1.125 0.1875 0
1.3125 0.1875 0
1.125 0.234375 0
1.3125 0.234375 0
1.3125 0.1875 0
1.5 0.1875 0
1.3125 0.234375 0
1.5 0.234375 0
1.125 0.234375 0
1.3125 0.234375 0
1.125 0.28125 0
1.3125 0.28125 0
1.3125 0.234375 0
1.5 0.234375 0
1.3125 0.28125 0
1.5 0.28125 0
0.75 0.28125 0
0.9375 0.28125 0
0.75 0.328125 0
0.9375 0.328125 0
0.9375 0.28125 0
1.125 0.28125 0
0.9375 0.328125 0
1.125 0.328125 0
0.75 0.328125 0
0.9375 0.328125 0
0.75 0.375 0
0.9375 0.375 0
0.9375 0.328125 0
1.125 0.328125 0
0.9375 0.375 0
1.125 0.375 0
1.125 0.28125 0
1.3125 0.28125 0
1.125 0.328125 0
1.3125 0.328125 0
1.3125 0.28125 0
1.5 0.28125 0
1.3125 0.328125 0
1.5 0.328125 0
1.125 0.328125 0
1.3125 0.328125 0
1.125 0.375 0
1.3125 0.375 0
1.3125 0.328125 0
1.5 0.328125 0
1.3125 0.375 0
1.5 0.375 0
1.5 0 0
1.6875 0 0
1.5 0.046875 0
1.6875 0.046875 0
1.6875 0 0
1.875 0 0
1.6875 0.046875 0
1.875 0.046875 0
1.5 0.046875 0
1.6875 0.046875 0
1.5 0.09375 0
1.6875 0.09375 0
1.6875 0.046875 0
1.875 0.046875 0
1.6875 0.09375 0
1.875 0.09375 0
1.875 0 0
2.0625 0 0
1.875 0.046875 0
2.0625 0.046875 0
2.0625 0 0
2.25 0 0
2.0625 0.046875 0
2.25 0.046875 0
1.875 0.046875 0
2.0625 0.046875 0
1.875 0.09375 0
2.0625 0.09375 0
2.0625 0.046875 0
2.25 0.046875 0
2.0625 0.09375 0
2.25 0.09375 0
1.5 0.09375 0
1.6875 0.09375 0
1.5 0.140625 0
1.6875 0.140625 0
1.6875 0.09375 0
1.875 0.09375 0
1.6875 0.140625 0
1.875 0.140625 0
1.5 0.140625 0
1.6875 0.140625 0
1.5 0.1875 0
1.6875 0.1875 0
1.6875 0.140625 0
1.875 0.140625 0
1.6875 0.1875 0
1.875 0.1875 0
1.875 0.09375 0
2.0625 0.09375 0
1.875 0.140625 0
2.0625 0.140625 0
2.0625 0.09375 0
2.25 0.09375 0
2.0625 0.140625 0
2.25 0.140625 0
1.875 0.140625 0
2.0625 0.140625 0
1.875 0.1875 0
2.0625 0.1875 0
2.0625 0.140625 0
2.25 0.140625 0
2.0625 0.1875 0
2.25 0.1875 0
2.25 0 0
2.4375 0 0
2.25 0.046875 0
2.4375 0.046875 0
2.4375 0 0
2.625 0 0
2.4375 0.046875 0
2.625 0.046875 0
2.25 0.046875 0
2.4375 0.046875 0
2.25 0.09375 0
2.4375 0.09375 0
2.4375 0.046875 0
2.625 0.046875 0
2.4375 0.09375 0
2.625 0.09375 0
2.625 0 0
2.8125 0 0
2.625 0.046875 0
2.8125 0.046875 0
2.8125 0 0
3 0 0
2.8125 0.046875 0
3 0.046875 0
2.625 0.046875 0
2.8125 0.046875 0
2.625 0.09375 0
2.8125 0.09375 0
2.8125 0.046875 0
3 0.046875 0
2.8125 0.09375 0
3 0.09375 0
2.25 0.09375 0
2.4375 0.09375 0
2.25 0.140625 0
2.4375 0.140625 0
2.4375 0.09375 0
2.625 0.09375 0
2.4375 0.140625 0
2.625 0.140625 0
2.25 0.140625 0
2.4375 0.140625 0
2.25 0.1875 0
2.4375 0.1875 0
2.4375 0.140625 0
2.625 0.140625 0
2.4375 0.1875 0
2.625 0.1875 0
2.625 0.09375 0
2.8125 0.09375 0
2.625 0.140625 0
2.8125 0.140625 0
2.8125 0.09375 0
3 0.09375 0
2.8125 0.140625 0
3 0.140625 0
2.625 0.140625 0
2.8125 0.140625 0
2.625 0.1875 0
2.8125 0.1875 0
2.8125 0.140625 0
3 0.140625 0
2.8125 0.1875 0
3 0.1875 0
1.5 0.1875 0
1.6875 0.1875 0
1.5 0.234375 0
1.6875 0.234375 0
1.6875 0.1875 0
1.875 0.1875 0
1.6875 0.234375 0
1.875 0.234375 0
1.5 0.234375 0
1.6875 0.234375 0
1.5 0.28125 0
1.6875 0.28125 0
1.6875 0.234375 0
1.875 0.234375 0
1.6875 0.28125 0
1.875 0.28125 0
1.875 0.1875 0
2.0625 0.1875 0
1.875 0.234375 0
2.0625 0.234375 0
2.0625 0.1875 0
2.25 0.1875 0
2.0625 0.234375 0
2.25 0.234375 0
1.875 0.234375 0
2.0625 0.234375 0
1.875 0.28125 0
2.0625 0.28125 0
2.0625 0.234375 0
2.25 0.234375 0
2.0625 0.28125 0
2.25 0.28125 0
1.5 0.28125 0
1.6875 0.28125 0
1.5 0.328125 0
1.6875 0.328125 0
1.6875 0.28125 0
1.875 0.28125 0
1.6875 0.328125 0
1.875 0.328125 0
1.5 0.328125 0
1.6875 0.328125 0
1.5 0.375 0
1.6875 0.375 0
1.6875 0.328125 0
1.875 0.328125 0
1.6875 0.375 0
1.875 0.375 0
1.875 0.28125 0
2.0625 0.28125 0
1.875 0.328125 0
2.0625 0.328125 0
2.0625 0.28125 0
2.25 0.28125 0
2.0625 0.328125 0
2.25 0.328125 0
1.875 0.328125 0
2.0625 0.328125 0
1.875 0.375 0
2.0625 0.375 0
2.0625 0.328125 0
2.25 0.328125 0
2.0625 0.375 0
2.25 0.375 0
2.25 0.1875 0
2.4375 0.1875 0
2.25 0.234375 0
2.4375 0.234375 0
2.4375 0.1875 0
2.625 0.1875 0
2.4375 0.234375 0
2.625 0.234375 0
2.25 0.234375 0
2.4375 0.234375 0
2.25 0.28125 0
2.4375 0.28125 0
2.4375 0.234375 0
2.625 0.234375 0
2.4375 0.28125 0
2.625 0.28125 0
2.625 0.1875 0
2.8125 0.1875 0
2.625 0.234375 0
2.8125 0.234375 0
2.8125 0.1875 0
3 0.1875 0
2.8125 0.234375 0
3 0.234375 0
2.625 0.234375 0
2.8125 0.234375 0
2.625 0.28125 0
2.8125 0.28125 0
2.8125 0.234375 0
3 0.234375 0
2.8125 0.28125 0
3 0.28125 0
2.25 0.28125 0
2.4375 0.28125 0
2.25 0.328125 0
2.4375 0.328125 0
2.4375 0.28125 0
2.625 0.28125 0
2.4375 0.328125 0
2.625 0.328125 0
2.25 0.328125 0
2.4375 0.328125 0
2.25 0.375 0
2.4375 0.375 0
2.4375 0.328125 0
2.625 0.328125 0
2.4375 0.375 0
2.625 0.375 0
2.625 0.28125 0
2.8125 0.28125 0
2.625 0.328125 0
2.8125 0.328125 0
2.8125 0.28125 0
3 0.28125 0
2.8125 0.328125 0
3 0.328125 0
2.625 0.328125 0
2.8125 0.328125 0
2.625 0.375 0
2.8125 0.375 0
2.8125 0.328125 0
3 0.328125 0
2.8125 0.375 0
3 0.375 0
0 0.375 0
0.1875 0.375 0
0 0.421875 0
0.1875 0.421875 0
0.1875 0.375 0
0.375 0.375 0
0.1875 0.421875 0
0.375 0.421875 0
0 0.421875 0
0.1875 0.421875 0
0 0.46875 0
0.1875 0.46875 0
0.1875 0.421875 0
0.375 0.421875 0
0.1875 0.46875 0
0.375 0.46875 0
0.375 0.375 0
0.5625 0.375 0
0.375 0.421875 0
0.5625 0.421875 0
0.5625 0.375 0
0.75 0.375 0
0.5625 0.421875 0
0.75 0.421875 0
0.375 0.421875 0
0.5625 0.421875 0
0.375 0.46875 0
0.5625 0.46875 0
0.5625 0.421875 0
0.75 0.421875 0
0.5625 0.46875 0
0.75 0.46875 0
0 0.46875 0
0.1875 0.46875 0
0 0.515625 0
0.1875 0.515625 0
0.1875 0.46875 0
0.375 0.46875 0
0.1875 0.515625 0
0.375 0.515625 0
0 0.515625 0
0.1875 0.515625 0
0 0.5625 0
0.1875 0.5625 0
0.1875 0.515625 0
0.375 0.515625 0
0.1875 0.5625 0
0.375 0.5625 0
0.375 0.46875 0
0.5625 0.46875 0
0.375 0.515625 0
0.5625 0.515625 0
0.5625 0.46875 0
0.75 0.46875 0
0.5625 0.515625 0
0.75 0.515625 0
0.375 0.515625 0
0.5625 0.515625 0
0.375 0.5625 0
0.5625 0.5625 0
0.5625 0.515625 0
0.75 0.515625 0
0.5625 0.5625 0
0.75 0.5625 0
0.75 0.375 0
0.9375 0.375 0
0.75 0.421875 0
0.9375 0.421875 0
0.9375 0.375 0
1.125 0.375 0
0.9375 0.421875 0
1.125 0.421875 0
0.75 0.421875 0
0.9375 0.421875 0
0.75 0.46875 0
0.9375 0.46875 0
0.9375 0.421875 0
1.125 0.421875 0
0.9375 0.46875 0
1.125 0.46875 0
1.125 0.375 0
1.3125 0.375 0
1.125 0.421875 0
1.3125 0.421875 0
1.3125 0.375 0
1.5 0.375 0
1.3125 0.421875 0
1.5 0.421875 0
1.125 0.421875 0
1.3125 0.421875 0
1.125 0.46875 0
1.3125 0.46875 0
1.3125 0.421875 0
1.5 0.421875 0
1.3125 0.46875 0
1.5 0.46875 0
0.75 0.46875 0
0.9375 0.46875 0
0.75 0.515625 0
0.9375 0.515625 0
0.9375 0.46875 0
1.125 0.46875 0
0.9375 0.515625 0
1.125 0.515625 0
0.75 0.515625 0
0.9375 0.515625 0
[...]
POINT_DATA 16384
SCALARS x_displacement double 1
LOOKUP_TABLE default
0 0.0320586 0 0.0288627 0.0320586 0.0562038 0.0288627 0.0548813 0 0.0288627 0 0.0266578 0.0288627 0.0548813 0.0266578 0.0524164 0.0562038 0.0704409 0.0548813 0.0694746 0.0704409 0.0745912 0.0694746 0.0740789 0.0548813 0.0694746 0.0524164 0.0677779 0.0694746 0.0740789 0.0677779 0.0730941 0 0.0266578 0 0.0248204 0.0266578 0.0524164 0.0248204 0.0491052 0 0.0248204 0 0.0232619 0.0248204 0.0491052 0.0232619 0.0456916 0.0524164 0.0677779 0.0491052 0.0652566 0.0677779 0.0730941 0.0652566 0.0716765 0.0491052 0.0652566 0.0456916 0.0617651 0.0652566 0.0716765 0.0617651 0.0699601 0.0745912 0.0780423 0.0740789 0.077939 0.0780423 0.0818188 0.077939 0.0819952 0.0740789 0.077939 0.0730941 0.0775764 0.077939 0.0819952 0.0775764 0.0819761 0.0818188 0.0855252 0.0819952 0.0857814 0.0855252 0.0888647 0.0857814 0.0891239 0.0819952 0.0857814 0.0819761 0.0859038 0.0857814 0.0891239 0.0859038 0.0892863 0.0730941 0.0775764 0.0716765 0.0769961 0.0775764 0.0819761 0.0769961 0.0817902 0.0716765 0.0769961 0.0699601 0.0762463 0.0769961 0.0817902 0.0762463 0.0814597 0.0819761 0.0859038 0.0817902 0.0859021 0.0859038 0.0892863 0.0859021 0.0893584 0.0817902 0.0859021 0.0814597 0.0857905 0.0859021 0.0893584 0.0857905 0.089347 0 0.0232619 0 0.0219337 0.0232619 0.0456916 0.0219337 0.0424739 0 0.0219337 0 0.020758 0.0219337 0.0424739 0.020758 0.0399262 0.0456916 0.0617651 0.0424739 0.0581866 0.0617651 0.0699601 0.0581866 0.0681828 0.0424739 0.0581866 0.0399262 0.0553288 0.0581866 0.0681828 0.0553288 0.0663823 0 0.020758 0 0.0197643 0.020758 0.0399262 0.0197643 0.0379079 0 0.0197643 0 0.018945 0.0197643 0.0379079 0.018945 0.0363015 0.0399262 0.0553288 0.0379079 0.053051 0.0553288 0.0663823 0.053051 0.064688 0.0379079 0.053051 0.0363015 0.051194 0.053051 0.064688 0.051194 0.0631503 0.0699601 0.0762463 0.0681828 0.075351 0.0762463 0.0814597 0.075351 0.0810132 0.0681828 0.075351 0.0663823 0.0743689 0.075351 0.0810132 0.0743689 0.0804726 0.0814597 0.0857905 0.0810132 0.0855821 0.0857905 0.089347 0.0855821 0.0892596 0.0810132 0.0855821 0.0804726 0.0852913 0.0855821 0.0892596 0.0852913 0.0891044 0.0663823 0.0743689 0.064688 0.0733344 0.0743689 0.0804726 0.0733344 0.0798628 0.064688 0.0733344 0.0631503 0.0722902 0.0733344 0.0798628 0.0722902 0.0792038 0.0804726 0.0852913 0.0798628 0.0849316 0.0852913 0.0891044 0.0849316 0.0888897 0.0798628 0.0849316 0.0792038 0.0845166 0.0849316 0.0888897 0.0845166 0.0886235 0.0888647 0.0917515 0.0891239 0.091973 0.0917515 0.0941842 0.091973 0.0943464 0.0891239 0.091973 0.0892863 0.0921247 0.091973 0.0943464 0.0921247 0.0944589 0.0941842 0.0961974 0.0943464 0.0962908 0.0961974 0.0978407 0.0962908 0.0978639 0.0943464 0.0962908 0.0944589 0.0963502 0.0962908 0.0978639 0.0963502 0.097865 0.0892863 0.0921247 0.0893584 0.0922097 0.0921247 0.0944589 0.0922097 0.0945234 0.0893584 0.0922097 0.089347 0.0922321 0.0922097 0.0945234 0.0922321 0.0945418 0.0944589 0.0963502 0.0945234 0.0963759 0.0963502 0.097865 0.0963759 0.0978436 0.0945234 0.0963759 0.0945418 0.0963688 0.0963759 0.0978436 0.0963688 0.0977997 0.0978407 0.0991677 0.0978639 0.0991242 0.0991677 0.10023 0.0991242 0.100126 0.0978639 0.0991242 0.097865 0.0990675 0.0991242 0.100126 0.0990675 0.100016 0.10023 0.101075 0.100126 0.100919 0.101075 0.101742 0.100919 0.101542 0.100126 0.100919 0.100016 0.100761 0.100919 0.101542 0.100761 0.101343 0.097865 0.0990675 0.0978436 0.0989969 0.0990675 0.100016 0.0989969 0.0998981 0.0978436 0.0989969 0.0977997 0.0989119 0.0989969 0.0998981 0.0989119 0.0997718 0.100016 0.100761 0.0998981 0.1006 0.100761 0.101343 0.1006 0.101144 0.0998981 0.1006 0.0997718 0.100434 0.1006 0.101144 0.100434 0.100945 0.089347 0.0922321 0.0892596 0.0921963 0.0922321 0.0945418 0.0921963 0.0945165 0.0892596 0.0921963 0.0891044 0.0921069 0.0921963 0.0945165 0.0921069 0.09445 0.0945418 0.0963688 0.0945165 0.0963298 0.0963688 0.0977997 0.0963298 0.0977335 0.0945165 0.0963298 0.09445 0.0962602 0.0963298 0.0977335 0.0962602 0.0976455 0.0891044 0.0921069 0.0888897 0.0919689 0.0921069 0.09445 0.0919689 0.0943454 0.0888897 0.0919689 0.0886235 0.0917873 0.0919689 0.0943454 0.0917873 0.0942056 0.09445 0.0962602 0.0943454 0.0961616 0.0962602 0.0976455 0.0961616 0.0975361 0.0943454 0.0961616 0.0942056 0.0960357 0.0961616 0.0975361 0.0960357 0.0974063 0.0977997 0.0989119 0.0977335 0.0988121 0.0989119 0.0997718 0.0988121 0.0996364 0.0977335 0.0988121 0.0976455 0.0986973 0.0988121 0.0996364 0.0986973 0.0994915 0.0997718 0.100434 0.0996364 0.100265 0.100434 0.100945 0.100265 0.100743 0.0996364 0.100265 0.0994915 0.100089 0.100265 0.100743 0.100089 0.100539 0.0976455 0.0986973 0.0975361 0.0985676 0.0986973 0.0994915 0.0985676 0.0993367 0.0975361 0.0985676 0.0974063 0.0984231 0.0985676 0.0993367 0.0984231 0.0991718 0.0994915 0.100089 0.0993367 0.099908 0.100089 0.100539 0.099908 0.100332 0.0993367 0.099908 0.0991718 0.0997202 0.099908 0.100332 0.0997202 0.100121 0 0.018945 0 0.018278 0.018945 0.0363015 0.018278 0.0350141 0 0.018278 0 0.0177375 0.018278 0.0350141 0.0177375 0.0339752 0.0363015 0.051194 0.0350141 0.04966 0.051194 0.0631503 0.04966 0.0617757 0.0350141 0.04966 0.0339752 0.0483815 0.04966 0.0617757 0.0483815 0.0605551 0 0.0177375 0 0.0172991 0.0177375 0.0339752 0.0172991 0.0331308 0 0.0172991 0 0.0169424 0.0172991 0.0331308 0.0169424 0.0324395 0.0339752 0.0483815 0.0331308 0.0473083 0.0483815 0.0605551 0.0473083 0.0594745 0.0331308 0.0473083 0.0324395 0.046402 0.0473083 0.0594745 0.046402 0.0585189 0.0631503 0.0722902 0.0617757 0.0712698 0.0722902 0.0792038 0.0712698 0.0785147 0.0617757 0.0712698 0.0605551 0.0702945 0.0712698 0.0785147 0.0702945 0.0778131 0.0792038 0.0845166 0.0785147 0.0840587 0.0845166 0.0886235 0.0840587 0.088314 0.0785147 0.0840587 0.0778131 0.0835692 0.0840587 0.088314 0.0835692 0.0879689 0.0605551 0.0702945 0.0594745 0.0693757 0.0702945 0.0778131 0.0693757 0.0771132 0.0594745 0.0693757 0.0585189 0.0685187 0.0693757 0.0771132 0.0685187 0.0764261 0.0778131 0.0835692 0.0771132 0.0830584 0.0835692 0.0879689 0.0830584 0.0875953 0.0771132 0.0830584 0.0764261 0.0825354 0.0830584 0.0875953 0.0825354 0.0871998 0 0.0169424 0 0.0166504 0.0169424 0.0324395 0.0166504 0.0318693 0 0.0166504 0 0.0164098 0.0166504 0.0318693 0.0164098 0.0313953 0.0324395 0.046402 0.0318693 0.045632 0.046402 0.0585189 0.045632 0.0576734 0.0318693 0.045632 0.0313953 0.0449743 0.045632 0.0576734 0.0449743 0.0569245 0 0.0164098 0 0.0162099 0.0164098 0.0313953 0.0162099 0.0309981 0 0.0162099 0 0.0160424 0.0162099 0.0309981 0.0160424 0.0306624 0.0313953 0.0449743 0.0309981 0.0444091 0.0449743 0.0569245 0.0444091 0.0562599 0.0309981 0.0444091 0.0306624 0.0439206 0.0444091 0.0562599 0.0439206 0.0556687 0.0585189 0.0685187 0.0576734 0.0677246 0.0685187 0.0764261 0.0677246 0.0757596 0.0576734 0.0677246 0.0569245 0.0669919 0.0677246 0.0757596 0.0669919 0.0751188 0.0764261 0.0825354 0.0757596 0.082008 0.0825354 0.0871998 0.082008 0.0867885 0.0757596 0.082008 0.0751188 0.0814824 0.082008 0.0867885 0.0814824 0.0863666 0.0569245 0.0669919 0.0562599 0.0663177 0.0669919 0.0751188 0.0663177 0.0745072 0.0562599 0.0663177 0.0556687 0.0656983 0.0663177 0.0745072 0.0656983 0.0739262 0.0751188 0.0814824 0.0745072 0.0809637 0.0814824 0.0863666 0.0809637 0.0859389 0.0745072 0.0809637 0.0739262 0.0804559 0.0809637 0.0859389 0.0804559 0.0855092 0.0886235 0.0917873 0.088314 0.0915672 0.0917873 0.0942056 0.0915672 0.0940337 0.088314 0.0915672 0.0879689 0.0913135 0.0915672 0.0940337 0.0913135 0.0938329 0.0942056 0.0960357 0.0940337 0.0958842 0.0960357 0.0974063 0.0958842 0.0972569 0.0940337 0.0958842 0.0938329 0.095709 0.0958842 0.0972569 0.095709 0.0970889 0.0879689 0.0913135 0.0875953 0.0910312 0.0913135 0.0938329 0.0910312 0.0936063 0.0875953 0.0910312 0.0871998 0.0907249 0.0910312 0.0936063 0.0907249 0.0933571 0.0938329 0.095709 0.0936063 0.0955122 0.095709 0.0970889 0.0955122 0.0969035 0.0936063 0.0955122 0.0933571 0.0952957 0.0955122 0.0969035 0.0952957 0.0967019 0.0974063 0.0984231 0.0972569 0.0982643 0.0984231 0.0991718 0.0982643 0.0989967 0.0972569 0.0982643 0.0970889 0.0980914 0.0982643 0.0989967 0.0980914 0.0988115 0.0991718 0.0997202 0.0989967 0.0995256 0.0997202 0.100121 0.0995256 0.0999061 0.0989967 0.0995256 0.0988115 0.099324 0.0995256 0.0999061 0.099324 0.0996865 0.0970889 0.0980914 0.0969035 0.097905 0.0980914 0.0988115 0.097905 0.0986162 0.0969035 0.097905 0.0967019 0.0977058 0.097905 0.0986162 0.0977058 0.0984111 0.0988115 0.099324 0.0986162 0.0991152 0.099324 0.0996865 0.0991152 0.099462 0.0986162 0.0991152 0.0984111 0.0988992 0.0991152 0.099462 0.0988992 0.0992323 0.0871998 0.0907249 0.0867885 0.0903988 0.0907249 0.0933571 0.0903988 0.0930883 0.0867885 0.0903988 0.0863666 0.0900571 0.0903988 0.0930883 0.0900571 0.0928027 0.0933571 0.0952957 0.0930883 0.0950615 0.0952957 0.0967019 0.0950615 0.0964852 0.0930883 0.0950615 0.0928027 0.0948115 0.0950615 0.0964852 0.0948115 0.0962547 0.0863666 0.0900571 0.0859389 0.0897034 0.0900571 0.0928027 0.0897034 0.092503 0.0859389 0.0897034 0.0855092 0.089341 0.0897034 0.092503 0.089341 0.0921918 0.0928027 0.0948115 0.092503 0.0945476 0.0948115 0.0962547 0.0945476 0.0960115 0.092503 0.0945476 0.0921918 0.0942715 0.0945476 0.0960115 0.0942715 0.0957569 0.0967019 0.0977058 0.0964852 0.0974943 0.0977058 0.0984111 0.0974943 0.0981964 0.0964852 0.0974943 0.0962547 0.0972712 0.0974943 0.0981964 0.0972712 0.0979725 0.0984111 0.0988992 0.0981964 0.098676 0.0988992 0.0992323 0.098676 0.0989975 0.0981964 0.098676 0.0979725 0.0984455 0.098676 0.0989975 0.0984455 0.0987571 0.0962547 0.0972712 0.0960115 0.0970374 0.0972712 0.0979725 0.0970374 0.0977396 0.0960115 0.0970374 0.0957569 0.0967934 0.0970374 0.0977396 0.0967934 0.0974981 0.0979725 0.0984455 0.0977396 0.0982079 0.0984455 0.0987571 0.0982079 0.0985113 0.0977396 0.0982079 0.0974981 0.0979634 0.0982079 0.0985113 0.0979634 0.09826 0.101742 0.102266 0.101542 0.102031 0.102266 0.102676 0.102031 0.102412 0.101542 0.102031 0.101343 0.101798 0.102031 0.102412 0.101798 0.102152 0.102676 0.102995 0.102412 0.102709 0.102995 0.103242 0.102709 0.102939 0.102412 0.102709 0.102152 0.102428 0.102709 0.102939 0.102428 0.102641 0.101343 0.101798 0.101144 0.101567 0.101798 0.102152 0.101567 0.101895 0.101144 0.101567 0.100945 0.101338 0.101567 0.101895 0.101338 0.101641 0.102152 0.102428 0.101895 0.10215 0.102428 0.102641 0.10215 0.102347 0.101895 0.10215 0.101641 0.101875 0.10215 0.102347 0.101875 0.102055 0.103242 0.103431 0.102939 0.103116 0.103431 0.103575 0.103116 0.103252 0.102939 0.103116 0.102641 0.102806 0.103116 0.103252 0.102806 0.102933 0.103575 0.103684 0.103252 0.103355 0.103684 0.103765 0.103355 0.103432 0.103252 0.103355 0.102933 0.103029 0.103355 0.103432 0.103029 0.103102 0.102641 0.102806 0.102347 0.102499 0.102806 0.102933 0.102499 0.102616 0.102347 0.102499 0.102055 0.102195 0.102499 0.102616 0.102195 0.102302 0.102933 0.103029 0.102616 0.102706 0.103029 0.103102 0.102706 0.102774 0.102616 0.102706 0.102302 0.102385 0.102706 0.102774 0.102385 0.102448 0.100945 0.101338 0.100743 0.101108 0.101338 0.101641 0.101108 0.101388 0.100743 0.101108 0.100539 0.100879 0.101108 0.101388 0.100879 0.101135 0.101641 0.101875 0.101388 0.101602 0.101875 0.102055 0.101602 0.101767 0.101388 0.101602 0.101135 0.101331 0.101602 0.101767 0.101331 0.10148 0.100539 0.100879 0.100332 0.100648 0.100879 0.101135 0.100648 0.100883 0.100332 0.100648 0.100121 0.100415 0.100648 0.100883 0.100415 0.100631 0.101135 0.101331 0.100883 0.10106 0.101331 0.10148 0.10106 0.101194 0.100883 0.10106 0.100631 0.100791 0.10106 0.101194 0.100791 0.10091 0.102055 0.102195 0.101767 0.101893 0.102195 0.102302 0.101893 0.101991 0.101767 0.101893 0.10148 0.101594 0.101893 0.101991 0.101594 0.101682 0.102302 0.102385 0.101991 0.102066 0.102385 0.102448 0.102066 0.102123 0.101991 0.102066 0.101682 0.101749 0.102066 0.102123 0.101749 0.101801 0.10148 0.101594 0.101194 0.101296 0.101594 0.101682 0.101296 0.101374 0.101194 0.101296 0.10091 0.101 0.101296 0.101374 0.101 0.101068 0.101682 0.101749 0.101374 0.101434 0.101749 0.101801 0.101434 0.101479 0.101374 0.101434 0.101068 0.10112 0.101434 0.101479 0.10112 0.101159 0.103765 0.103825 0.103432 0.103489 0.103825 0.103868 0.103489 0.103531 0.103432 0.103489 0.103102 0.103156 0.103489 0.103531 0.103156 0.103196 0.103868 0.103899 0.103531 0.103561 0.103899 0.10392 0.103561 0.103583 0.103531 0.103561 0.103196 0.103225 0.103561 0.103583 0.103225 0.103246 0.103102 0.103156 0.102774 0.102825 0.103156 0.103196 0.102825 0.102862 0.102774 0.102825 0.102448 0.102495 0.102825 0.102862 0.102495 0.10253 0.103196 0.103225 0.102862 0.10289 0.103225 0.103246 0.10289 0.10291 0.102862 0.10289 0.10253 0.102556 0.10289 0.10291 0.102556 0.102575 0.10392 0.103935 0.103583 0.103597 0.103935 0.103944 0.103597 0.103607 0.103583 0.103597 0.103246 0.10326 0.103597 0.103607 0.10326 0.10327 0.103944 0.10395 0.103607 0.103613 0.10395 0.103953 0.103613 0.103616 0.103607 0.103613 0.10327 0.103276 0.103613 0.103616 0.103276 0.10328 0.103246 0.10326 0.10291 0.102924 0.10326 0.10327 0.102924 0.102933 0.10291 0.102924 0.102575 0.102588 0.102924 0.102933 0.102588 0.102597 0.10327 0.103276 0.102933 0.102939 0.103276 0.10328 0.102939 0.102943 0.102933 0.102939 0.102597 0.102603 0.102939 0.102943 0.102603 0.102607 0.102448 0.102495 0.102123 0.102167 0.102495 0.10253 0.102167 0.102199 0.102123 0.102167 0.101801 0.10184 0.102167 0.102199 0.10184 0.101869 0.10253 0.102556 0.102199 0.102223 0.102556 0.102575 0.102223 0.10224 0.102199 0.102223 0.101869 0.101891 0.102223 0.10224 0.101891 0.101907 0.101801 0.10184 0.101479 0.101514 0.10184 0.101869 0.101514 0.10154 0.101479 0.101514 0.101159 0.101189 0.101514 0.10154 0.101189 0.101212 0.101869 0.101891 0.10154 0.10156 0.101891 0.101907 0.10156 0.101574 0.10154 0.10156 0.101212 0.101229 0.10156 0.101574 0.101229 0.101242 0.102575 0.102588 0.10224 0.102253 0.102588 0.102597 0.102253 0.102262 0.10224 0.102253 0.101907 0.101918 0.102253 0.102262 0.101918 0.101926 0.102597 0.102603 0.102262 0.102267 0.102603 0.102607 0.102267 0.102271 0.102262 0.102267 0.101926 0.101932 0.102267 0.102271 0.101932 0.101935 0.101907 0.101918 0.101574 0.101584 0.101918 0.101926 0.101584 0.101592 0.101574 0.101584 0.101242 0.101251 0.101584 0.101592 0.101251 0.101257 0.101926 0.101932 0.101592 0.101597 0.101932 0.101935 0.101597 0.1016 0.101592 0.101597 0.101257 0.101262 0.101597 0.1016 0.101262 0.101265 0.100121 0.100415 0.0999061 0.10018 0.100415 0.100631 0.10018 0.100377 0.0999061 0.10018 0.0996865 0.0999421 0.10018 0.100377 0.0999421 0.100123 0.100631 0.100791 0.100377 0.100521 0.100791 0.10091 0.100521 0.100626 0.100377 0.100521 0.100123 0.100251 0.100521 0.100626 0.100251 0.100343 0.0996865 0.0999421 0.099462 0.0997013 0.0999421 0.100123 0.0997013 0.0998661 0.099462 0.0997013 0.0992323 0.0994571 0.0997013 0.0998661 0.0994571 0.0996075 0.100123 0.100251 0.0998661 0.0999799 0.100251 0.100343 0.0999799 0.100059 0.0998661 0.0999799 0.0996075 0.0997078 0.0999799 0.100059 0.0997078 0.0997749 0.10091 0.101 0.100626 0.100704 0.101 0.101068 0.100704 0.100763 0.100626 0.100704 0.100343 0.10041 0.100704 0.100763 0.10041 0.100459 0.101068 0.10112 0.100763 0.100807 0.10112 0.101159 0.100807 0.10084 0.100763 0.100807 0.100459 0.100495 0.100807 0.10084 0.100495 0.100522 0.100343 0.10041 0.100059 0.100115 0.10041 0.100459 0.100115 0.100155 0.100059 0.100115 0.0997749 0.09982 0.100115 0.100155 0.09982 0.0998508 0.100459 0.100495 0.100155 0.100183 0.100495 0.100522 0.100183 0.100205 0.100155 0.100183 0.0998508 0.0998723 0.100183 0.100205 0.0998723 0.0998875 0.0992323 0.0994571 0.0989975 0.0992092 0.0994571 0.0996075 0.0992092 0.0993465 0.0989975 0.0992092 0.0987571 0.0989574 0.0992092 0.0993465 0.0989574 0.0990826 0.0996075 0.0997078 0.0993465 0.0994342 0.0997078 0.0997749 0.0994342 0.0994898 0.0993465 0.0994342 0.0990826 0.0991588 0.0994342 0.0994898 0.0991588 0.0992036 0.0987571 0.0989574 0.0985113 0.0987014 0.0989574 0.0990826 0.0987014 0.0988159 0.0985113 0.0987014 0.09826 0.0984412 0.0987014 0.0988159 0.0984412 0.0985459 0.0990826 0.0991588 0.0988159 0.0988813 0.0991588 0.0992036 0.0988813 0.098916 0.0988159 0.0988813 0.0985459 0.0986014 0.0988813 0.098916 0.0986014 0.0986268 0.0997749 0.09982 0.0994898 0.0995249 0.09982 0.0998508 0.0995249 0.0995471 0.0994898 0.0995249 0.0992036 0.0992291 0.0995249 0.0995471 0.0992291 0.099243 0.0998508 0.0998723 0.0995471 0.0995613 0.0998723 0.0998875 0.0995613 0.0995706 0.0995471 0.0995613 0.099243 0.0992502 0.0995613 0.0995706 0.0992502 0.0992538 0.0992036 0.0992291 0.098916 0.0989324 0.0992291 0.099243 0.0989324 0.0989384 0.098916 0.0989324 0.0986268 0.0986347 0.0989324 0.0989384 0.0986347 0.0986332 0.099243 0.0992502 0.0989384 0.098939 0.0992502 0.0992538 0.098939 0.0989369 0.0989384 0.098939 0.0986332 0.0986272 0.098939 0.0989369 0.0986272 0.0986198 0.101159 0.101189 0.10084 0.100866 0.101189 0.101212 0.100866 0.100885 0.10084 0.100866 0.100522 0.100543 0.100866 0.100885 0.100543 0.100558 0.101212 0.101229 0.100885 0.100899 0.101229 0.101242 0.100899 0.10091 0.100885 0.100899 0.100558 0.10057 0.100899 0.10091 0.10057 0.100578 0.100522 0.100543 0.100205 0.10022 0.100543 0.100558 0.10022 0.100232 0.100205 0.10022 0.0998875 0.0998984 0.10022 0.100232 0.0998984 0.0999065 0.100558 0.10057 0.100232 0.100241 0.10057 0.100578 0.100241 0.100247 0.100232 0.100241 0.0999065 0.0999124 0.100241 0.100247 0.0999124 0.0999168 0.101242 0.101251 0.10091 0.100917 0.101251 0.101257 0.100917 0.100923 0.10091 0.100917 0.100578 0.100585 0.100917 0.100923 0.100585 0.100589 0.101257 0.101262 0.100923 0.100927 0.101262 0.101265 0.100927 0.10093 0.100923 0.100927 0.100589 0.100592 0.100927 0.10093 0.100592 0.100595 0.100578 0.100585 0.100247 0.100252 0.100585 0.100589 0.100252 0.100256 0.100247 0.100252 0.0999168 0.09992 0.100252 0.100256 0.09992 0.0999224 0.100589 0.100592 0.100256 0.100258 0.100592 0.100595 0.100258 0.10026 0.100256 0.100258 0.0999224 0.0999241 0.100258 0.10026 0.0999241 0.0999253 0.0998875 0.0998984 0.0995706 0.0995768 0.0998984 0.0999065 0.0995768 0.0995811 0.0995706 0.0995768 0.0992538 0.0992554 0.0995768 0.0995811 0.0992554 0.099256 0.0999065 0.0999124 0.0995811 0.0995842 0.0999124 0.0999168 0.0995842 0.0995864 0.0995811 0.0995842 0.099256 0.0992562 0.0995842 0.0995864 0.0992562 0.0992563 0.0992538 0.0992554 0.0989369 0.098934 0.0992554 0.099256 0.098934 0.098931 0.0989369 0.098934 0.0986198 0.0986125 0.098934 0.098931 0.0986125 0.098606 0.099256 0.0992562 0.098931 0.0989284 0.0992562 0.0992563 0.0989284 0.0989263 0.098931 0.0989284 0.098606 0.0986006 0.0989284 0.0989263 0.0986006 0.0985963 0.0999168 0.09992 0.0995864 0.0995881 0.09992 0.0999224 0.0995881 0.0995893 0.0995864 0.0995881 0.0992563 0.0992563 0.0995881 0.0995893 0.0992563 0.0992563 0.0999224 0.0999241 0.0995893 0.0995901 0.0999241 0.0999253 0.0995901 0.0995908 0.0995893 0.0995901 0.0992563 0.0992563 0.0995901 0.0995908 0.0992563 0.0992564 0.0992563 0.0992563 0.0989263 0.0989247 0.0992563 0.0992563 0.0989247 0.0989235 0.0989263 0.0989247 0.0985963 0.0985931 0.0989247 0.0989235 0.0985931 0.0985907 0.0992563 0.0992563 0.0989235 0.0989227 0.0992563 0.0992564 0.0989227 0.0989221 0.0989235 0.0989227 0.0985907 0.0985891 0.0989227 0.0989221 0.0985891 0.0985879 0 0.0160424 0 0.0159007 0.0160424 0.0306624 0.0159007 0.0303762 0 0.0159007 0 0.0157796 0.0159007 0.0303762 0.0157796 0.0301301 0.0306624 0.0439206 0.0303762 0.0434958 0.0439206 0.0556687 0.0434958 0.0551412 0.0303762 0.0434958 0.0301301 0.0431242 0.0434958 0.0551412 0.0431242 0.0546691 0 0.0157796 0 0.0156753 0.0157796 0.0301301 0.0156753 0.0299166 0 0.0156753 0 0.0155843 0.0156753 0.0299166 0.0155843 0.0297297 0.0301301 0.0431242 0.0299166 0.0427969 0.0431242 0.0546691 0.0427969 0.0542451 0.0299166 0.0427969 0.0297297 0.0425069 0.0427969 0.0542451 0.0425069 0.0538629 0.0556687 0.0656983 0.0551412 0.0651296 0.0656983 0.0739262 0.0651296 0.0733766 0.0551412 0.0651296 0.0546691 0.0646073 0.0651296 0.0733766 0.0646073 0.072858 0.0739