# vtk DataFile Version 3.0
#This file was generated by the deal.II library on 2022/1/6 at 22:54:41
ASCII
DATASET UNSTRUCTURED_GRID

POINTS 16384 double
0 0 0
0.1875 0 0
0 0.046875 0
0.1875 0.046875 0
0.1875 0 0
0.375 0 0
0.1875 0.046875 0
0.375 0.046875 0
0 0.046875 0
0.1875 0.046875 0
0 0.09375 0
0.1875 0.09375 0
0.1875 0.046875 0
0.375 0.046875 0
0.1875 0.09375 0
0.375 0.09375 0
0.375 0 0
0.5625 0 0
0.375 0.046875 0
0.5625 0.046875 0
0.5625 0 0
0.75 0 0
0.5625 0.046875 0
0.75 0.046875 0
0.375 0.046875 0
0.5625 0.046875 0
0.375 0.09375 0
0.5625 0.09375 0
0.5625 0.046875 0
0.75 0.046875 0
0.5625 0.09375 0
0.75 0.09375 0
0 0.09375 0
0.1875 0.09375 0
0 0.140625 0
0.1875 0.140625 0
0.1875 0.09375 0
0.375 0.09375 0
0.1875 0.140625 0
0.375 0.140625 0
0 0.140625 0
0.1875 0.140625 0
0 0.1875 0
0.1875 0.1875 0
0.1875 0.140625 0
0.375 0.140625 0
0.1875 0.1875 0
0.375 0.1875 0
0.375 0.09375 0
0.5625 0.09375 0
0.375 0.140625 0
0.5625 0.140625 0
0.5625 0.09375 0
0.75 0.09375 0
0.5625 0.140625 0
0.75 0.140625 0
0.375 0.140625 0
0.5625 0.140625 0
0.375 0.1875 0
0.5625 0.1875 0
0.5625 0.140625 0
0.75 0.140625 0
0.5625 0.1875 0
0.75 0.1875 0
0.75 0 0
0.9375 0 0
0.75 0.046875 0
0.9375 0.046875 0
0.9375 0 0
1.125 0 0
0.9375 0.046875 0
1.125 0.046875 0
0.75 0.046875 0
0.9375 0.046875 0
0.75 0.09375 0
0.9375 0.09375 0
0.9375 0.046875 0
1.125 0.046875 0
0.9375 0.09375 0
1.125 0.09375 0
1.125 0 0
1.3125 0 0
1.125 0.046875 0
1.3125 0.046875 0
1.3125 0 0
1.5 0 0
1.3125 0.046875 0
1.5 0.046875 0
1.125 0.046875 0
1.3125 0.046875 0
1.125 0.09375 0
1.3125 0.09375 0
1.3125 0.046875 0
1.5 0.046875 0
1.3125 0.09375 0
1.5 0.09375 0
0.75 0.09375 0
0.9375 0.09375 0
0.75 0.140625 0
0.9375 0.140625 0
0.9375 0.09375 0
1.125 0.09375 0
0.9375 0.140625 0
1.125 0.140625 0
0.75 0.140625 0
0.9375 0.140625 0
0.75 0.1875 0
0.9375 0.1875 0
0.9375 0.140625 0
1.125 0.140625 0
0.9375 0.1875 0
1.125 0.1875 0
1.125 0.09375 0
1.3125 0.09375 0
1.125 0.140625 0
1.3125 0.140625 0
1.3125 0.09375 0
1.5 0.09375 0
1.3125 0.140625 0
1.5 0.140625 0
1.125 0.140625 0
1.3125 0.140625 0
1.125 0.1875 0
1.3125 0.1875 0
1.3125 0.140625 0
1.5 0.140625 0
1.3125 0.1875 0
1.5 0.1875 0
0 0.1875 0
0.1875 0.1875 0
0 0.234375 0
0.1875 0.234375 0
0.1875 0.1875 0
0.375 0.1875 0
0.1875 0.234375 0
0.375 0.234375 0
0 0.234375 0
0.1875 0.234375 0
0 0.28125 0
0.1875 0.28125 0
0.1875 0.234375 0
0.375 0.234375 0
0.1875 0.28125 0
0.375 0.28125 0
0.375 0.1875 0
0.5625 0.1875 0
0.375 0.234375 0
0.5625 0.234375 0
0.5625 0.1875 0
0.75 0.1875 0
0.5625 0.234375 0
0.75 0.234375 0
0.375 0.234375 0
0.5625 0.234375 0
0.375 0.28125 0
0.5625 0.28125 0
0.5625 0.234375 0
0.75 0.234375 0
0.5625 0.28125 0
0.75 0.28125 0
0 0.28125 0
0.1875 0.28125 0
0 0.328125 0
0.1875 0.328125 0
0.1875 0.28125 0
0.375 0.28125 0
0.1875 0.328125 0
0.375 0.328125 0
0 0.328125 0
0.1875 0.328125 0
0 0.375 0
0.1875 0.375 0
0.1875 0.328125 0
0.375 0.328125 0
0.1875 0.375 0
0.375 0.375 0
0.375 0.28125 0
0.5625 0.28125 0
0.375 0.328125 0
0.5625 0.328125 0
0.5625 0.28125 0
0.75 0.28125 0
0.5625 0.328125 0
0.75 0.328125 0
0.375 0.328125 0
0.5625 0.328125 0
0.375 0.375 0
0.5625 0.375 0
0.5625 0.328125 0
0.75 0.328125 0
0.5625 0.375 0
0.75 0.375 0
0.75 0.1875 0
0.9375 0.1875 0
0.75 0.234375 0
0.9375 0.234375 0
0.9375 0.1875 0
1.125 0.1875 0
0.9375 0.234375 0
1.125 0.234375 0
0.75 0.234375 0
0.9375 0.234375 0
0.75 0.28125 0
0.9375 0.28125 0
0.9375 0.234375 0
1.125 0.234375 0
0.9375 0.28125 0
1.125 0.28125 0
1.125 0.1875 0
1.3125 0.1875 0
1.125 0.234375 0
1.3125 0.234375 0
1.3125 0.1875 0
1.5 0.1875 0
1.3125 0.234375 0
1.5 0.234375 0
1.125 0.234375 0
1.3125 0.234375 0
1.125 0.28125 0
1.3125 0.28125 0
1.3125 0.234375 0
1.5 0.234375 0
1.3125 0.28125 0
1.5 0.28125 0
0.75 0.28125 0
0.9375 0.28125 0
0.75 0.328125 0
0.9375 0.328125 0
0.9375 0.28125 0
1.125 0.28125 0
0.9375 0.328125 0
1.125 0.328125 0
0.75 0.328125 0
0.9375 0.328125 0
0.75 0.375 0
0.9375 0.375 0
0.9375 0.328125 0
1.125 0.328125 0
0.9375 0.375 0
1.125 0.375 0
1.125 0.28125 0
1.3125 0.28125 0
1.125 0.328125 0
1.3125 0.328125 0
1.3125 0.28125 0
1.5 0.28125 0
1.3125 0.328125 0
1.5 0.328125 0
1.125 0.328125 0
1.3125 0.328125 0
1.125 0.375 0
1.3125 0.375 0
1.3125 0.328125 0
1.5 0.328125 0
1.3125 0.375 0
1.5 0.375 0
1.5 0 0
1.6875 0 0
1.5 0.046875 0
1.6875 0.046875 0
1.6875 0 0
1.875 0 0
1.6875 0.046875 0
1.875 0.046875 0
1.5 0.046875 0
1.6875 0.046875 0
1.5 0.09375 0
1.6875 0.09375 0
1.6875 0.046875 0
1.875 0.046875 0
1.6875 0.09375 0
1.875 0.09375 0
1.875 0 0
2.0625 0 0
1.875 0.046875 0
2.0625 0.046875 0
2.0625 0 0
2.25 0 0
2.0625 0.046875 0
2.25 0.046875 0
1.875 0.046875 0
2.0625 0.046875 0
1.875 0.09375 0
2.0625 0.09375 0
2.0625 0.046875 0
2.25 0.046875 0
2.0625 0.09375 0
2.25 0.09375 0
1.5 0.09375 0
1.6875 0.09375 0
1.5 0.140625 0
1.6875 0.140625 0
1.6875 0.09375 0
1.875 0.09375 0
1.6875 0.140625 0
1.875 0.140625 0
1.5 0.140625 0
1.6875 0.140625 0
1.5 0.1875 0
1.6875 0.1875 0
1.6875 0.140625 0
1.875 0.140625 0
1.6875 0.1875 0
1.875 0.1875 0
1.875 0.09375 0
2.0625 0.09375 0
1.875 0.140625 0
2.0625 0.140625 0
2.0625 0.09375 0
2.25 0.09375 0
2.0625 0.140625 0
2.25 0.140625 0
1.875 0.140625 0
2.0625 0.140625 0
1.875 0.1875 0
2.0625 0.1875 0
2.0625 0.140625 0
2.25 0.140625 0
2.0625 0.1875 0
2.25 0.1875 0
2.25 0 0
2.4375 0 0
2.25 0.046875 0
2.4375 0.046875 0
2.4375 0 0
2.625 0 0
2.4375 0.046875 0
2.625 0.046875 0
2.25 0.046875 0
2.4375 0.046875 0
2.25 0.09375 0
2.4375 0.09375 0
2.4375 0.046875 0
2.625 0.046875 0
2.4375 0.09375 0
2.625 0.09375 0
2.625 0 0
2.8125 0 0
2.625 0.046875 0
2.8125 0.046875 0
2.8125 0 0
3 0 0
2.8125 0.046875 0
3 0.046875 0
2.625 0.046875 0
2.8125 0.046875 0
2.625 0.09375 0
2.8125 0.09375 0
2.8125 0.046875 0
3 0.046875 0
2.8125 0.09375 0
3 0.09375 0
2.25 0.09375 0
2.4375 0.09375 0
2.25 0.140625 0
2.4375 0.140625 0
2.4375 0.09375 0
2.625 0.09375 0
2.4375 0.140625 0
2.625 0.140625 0
2.25 0.140625 0
2.4375 0.140625 0
2.25 0.1875 0
2.4375 0.1875 0
2.4375 0.140625 0
2.625 0.140625 0
2.4375 0.1875 0
2.625 0.1875 0
2.625 0.09375 0
2.8125 0.09375 0
2.625 0.140625 0
2.8125 0.140625 0
2.8125 0.09375 0
3 0.09375 0
2.8125 0.140625 0
3 0.140625 0
2.625 0.140625 0
2.8125 0.140625 0
2.625 0.1875 0
2.8125 0.1875 0
2.8125 0.140625 0
3 0.140625 0
2.8125 0.1875 0
3 0.1875 0
1.5 0.1875 0
1.6875 0.1875 0
1.5 0.234375 0
1.6875 0.234375 0
1.6875 0.1875 0
1.875 0.1875 0
1.6875 0.234375 0
1.875 0.234375 0
1.5 0.234375 0
1.6875 0.234375 0
1.5 0.28125 0
1.6875 0.28125 0
1.6875 0.234375 0
1.875 0.234375 0
1.6875 0.28125 0
1.875 0.28125 0
1.875 0.1875 0
2.0625 0.1875 0
1.875 0.234375 0
2.0625 0.234375 0
2.0625 0.1875 0
2.25 0.1875 0
2.0625 0.234375 0
2.25 0.234375 0
1.875 0.234375 0
2.0625 0.234375 0
1.875 0.28125 0
2.0625 0.28125 0
2.0625 0.234375 0
2.25 0.234375 0
2.0625 0.28125 0
2.25 0.28125 0
1.5 0.28125 0
1.6875 0.28125 0
1.5 0.328125 0
1.6875 0.328125 0
1.6875 0.28125 0
1.875 0.28125 0
1.6875 0.328125 0
1.875 0.328125 0
1.5 0.328125 0
1.6875 0.328125 0
1.5 0.375 0
1.6875 0.375 0
1.6875 0.328125 0
1.875 0.328125 0
1.6875 0.375 0
1.875 0.375 0
1.875 0.28125 0
2.0625 0.28125 0
1.875 0.328125 0
2.0625 0.328125 0
2.0625 0.28125 0
2.25 0.28125 0
2.0625 0.328125 0
2.25 0.328125 0
1.875 0.328125 0
2.0625 0.328125 0
1.875 0.375 0
2.0625 0.375 0
2.0625 0.328125 0
2.25 0.328125 0
2.0625 0.375 0
2.25 0.375 0
2.25 0.1875 0
2.4375 0.1875 0
2.25 0.234375 0
2.4375 0.234375 0
2.4375 0.1875 0
2.625 0.1875 0
2.4375 0.234375 0
2.625 0.234375 0
2.25 0.234375 0
2.4375 0.234375 0
2.25 0.28125 0
2.4375 0.28125 0
2.4375 0.234375 0
2.625 0.234375 0
2.4375 0.28125 0
2.625 0.28125 0
2.625 0.1875 0
2.8125 0.1875 0
2.625 0.234375 0
2.8125 0.234375 0
2.8125 0.1875 0
3 0.1875 0
2.8125 0.234375 0
3 0.234375 0
2.625 0.234375 0
2.8125 0.234375 0
2.625 0.28125 0
2.8125 0.28125 0
2.8125 0.234375 0
3 0.234375 0
2.8125 0.28125 0
3 0.28125 0
2.25 0.28125 0
2.4375 0.28125 0
2.25 0.328125 0
2.4375 0.328125 0
2.4375 0.28125 0
2.625 0.28125 0
2.4375 0.328125 0
2.625 0.328125 0
2.25 0.328125 0
2.4375 0.328125 0
2.25 0.375 0
2.4375 0.375 0
2.4375 0.328125 0
2.625 0.328125 0
2.4375 0.375 0
2.625 0.375 0
2.625 0.28125 0
2.8125 0.28125 0
2.625 0.328125 0
2.8125 0.328125 0
2.8125 0.28125 0
3 0.28125 0
2.8125 0.328125 0
3 0.328125 0
2.625 0.328125 0
2.8125 0.328125 0
2.625 0.375 0
2.8125 0.375 0
2.8125 0.328125 0
3 0.328125 0
2.8125 0.375 0
3 0.375 0
0 0.375 0
0.1875 0.375 0
0 0.421875 0
0.1875 0.421875 0
0.1875 0.375 0
0.375 0.375 0
0.1875 0.421875 0
0.375 0.421875 0
0 0.421875 0
0.1875 0.421875 0
0 0.46875 0
0.1875 0.46875 0
0.1875 0.421875 0
0.375 0.421875 0
0.1875 0.46875 0
0.375 0.46875 0
0.375 0.375 0
0.5625 0.375 0
0.375 0.421875 0
0.5625 0.421875 0
0.5625 0.375 0
0.75 0.375 0
0.5625 0.421875 0
0.75 0.421875 0
0.375 0.421875 0
0.5625 0.421875 0
0.375 0.46875 0
0.5625 0.46875 0
0.5625 0.421875 0
0.75 0.421875 0
0.5625 0.46875 0
0.75 0.46875 0
0 0.46875 0
0.1875 0.46875 0
0 0.515625 0
0.1875 0.515625 0
0.1875 0.46875 0
0.375 0.46875 0
0.1875 0.515625 0
0.375 0.515625 0
0 0.515625 0
0.1875 0.515625 0
0 0.5625 0
0.1875 0.5625 0
0.1875 0.515625 0
0.375 0.515625 0
0.1875 0.5625 0
0.375 0.5625 0
0.375 0.46875 0
0.5625 0.46875 0
0.375 0.515625 0
0.5625 0.515625 0
0.5625 0.46875 0
0.75 0.46875 0
0.5625 0.515625 0
0.75 0.515625 0
0.375 0.515625 0
0.5625 0.515625 0
0.375 0.5625 0
0.5625 0.5625 0
0.5625 0.515625 0
0.75 0.515625 0
0.5625 0.5625 0
0.75 0.5625 0
0.75 0.375 0
0.9375 0.375 0
0.75 0.421875 0
0.9375 0.421875 0
0.9375 0.375 0
1.125 0.375 0
0.9375 0.421875 0
1.125 0.421875 0
0.75 0.421875 0
0.9375 0.421875 0
0.75 0.46875 0
0.9375 0.46875 0
0.9375 0.421875 0
1.125 0.421875 0
0.9375 0.46875 0
1.125 0.46875 0
1.125 0.375 0
1.3125 0.375 0
1.125 0.421875 0
1.3125 0.421875 0
1.3125 0.375 0
1.5 0.375 0
1.3125 0.421875 0
1.5 0.421875 0
1.125 0.421875 0
1.3125 0.421875 0
1.125 0.46875 0
1.3125 0.46875 0
1.3125 0.421875 0
1.5 0.421875 0
1.3125 0.46875 0
1.5 0.46875 0
0.75 0.46875 0
0.9375 0.46875 0
0.75 0.515625 0
0.9375 0.515625 0
0.9375 0.46875 0
1.125 0.46875 0
0.9375 0.515625 0
1.125 0.515625 0
0.75 0.515625 0
0.9375 0.515625 0
[...]
POINT_DATA 16384
SCALARS x_displacement double 1
LOOKUP_TABLE default
0 0.0334592 0 0.0299337 0.0334592 0.0589937 0.0299337 0.0573597 0 0.0299337 0 0.0275144 0.0299337 0.0573597 0.0275144 0.0546227 0.0589937 0.0749391 0.0573597 0.0736715 0.0749391 0.08112 0.0736715 0.0803448 0.0573597 0.0736715 0.0546227 0.0717136 0.0736715 0.0803448 0.0717136 0.0791251 0 0.0275144 0 0.0255266 0.0275144 0.0546227 0.0255266 0.0510876 0 0.0255266 0 0.0238574 0.0255266 0.0510876 0.0238574 0.0474926 0.0546227 0.0717136 0.0510876 0.0689644 0.0717136 0.0791251 0.0689644 0.0774995 0.0510876 0.0689644 0.0474926 0.0652762 0.0689644 0.0774995 0.0652762 0.0755995 0.08112 0.0868903 0.0803448 0.0865749 0.0868903 0.0932143 0.0865749 0.093237 0.0803448 0.0865749 0.0791251 0.0860201 0.0865749 0.093237 0.0860201 0.0930762 0.0932143 0.0996232 0.093237 0.0997864 0.0996232 0.105743 0.0997864 0.105968 0.093237 0.0997864 0.0930762 0.0998209 0.0997864 0.105968 0.0998209 0.106095 0.0791251 0.0860201 0.0774995 0.0852664 0.0860201 0.0930762 0.0852664 0.0927603 0.0774995 0.0852664 0.0755995 0.0843607 0.0852664 0.0927603 0.0843607 0.092311 0.0930762 0.0998209 0.0927603 0.0997365 0.0998209 0.106095 0.0997365 0.106132 0.0927603 0.0997365 0.092311 0.0995475 0.0997365 0.106132 0.0995475 0.106086 0 0.0238574 0 0.0224447 0.0238574 0.0474926 0.0224447 0.0441285 0 0.0224447 0 0.0212034 0.0224447 0.0441285 0.0212034 0.0414621 0.0474926 0.0652762 0.0441285 0.0615296 0.0652762 0.0755995 0.0615296 0.0736608 0.0441285 0.0615296 0.0414621 0.0585295 0.0615296 0.0736608 0.0585295 0.0717195 0 0.0212034 0 0.0201577 0.0212034 0.0414621 0.0201577 0.0393476 0 0.0201577 0 0.0192968 0.0201577 0.0393476 0.0192968 0.0376627 0.0414621 0.0585295 0.0393476 0.0561314 0.0585295 0.0717195 0.0561314 0.0699027 0.0393476 0.0561314 0.0376627 0.0541734 0.0561314 0.0699027 0.0541734 0.0682592 0.0755995 0.0843607 0.0736608 0.0833262 0.0843607 0.092311 0.0833262 0.0917564 0.0736608 0.0833262 0.0717195 0.08222 0.0833262 0.0917564 0.08222 0.0911178 0.092311 0.0995475 0.0917564 0.0992671 0.0995475 0.106086 0.0992671 0.105964 0.0917564 0.0992671 0.0911178 0.0989096 0.0992671 0.105964 0.0989096 0.105775 0.0717195 0.08222 0.0699027 0.0810756 0.08222 0.0911178 0.0810756 0.0904197 0.0699027 0.0810756 0.0682592 0.0799343 0.0810756 0.0904197 0.0799343 0.0896812 0.0911178 0.0989096 0.0904197 0.0984884 0.0989096 0.105775 0.0984884 0.105528 0.0904197 0.0984884 0.0896812 0.0980169 0.0984884 0.105528 0.0980169 0.10523 0.105743 0.111412 0.105968 0.111654 0.111412 0.116563 0.111654 0.116791 0.105968 0.111654 0.106095 0.11182 0.111654 0.116791 0.11182 0.116961 0.116563 0.121172 0.116791 0.121369 0.121172 0.125244 0.121369 0.125399 0.116791 0.121369 0.116961 0.12152 0.121369 0.125399 0.12152 0.125518 0.106095 0.11182 0.106132 0.111913 0.11182 0.116961 0.111913 0.117073 0.106132 0.111913 0.106086 0.111941 0.111913 0.117073 0.111941 0.117132 0.116961 0.12152 0.117073 0.121626 0.12152 0.125518 0.121626 0.125602 0.117073 0.121626 0.117132 0.121689 0.121626 0.125602 0.121689 0.125652 0.125244 0.128803 0.125399 0.12891 0.128803 0.131881 0.12891 0.131937 0.125399 0.12891 0.125518 0.128989 0.12891 0.131937 0.128989 0.131972 0.131881 0.134517 0.131937 0.134522 0.134517 0.136754 0.134522 0.136711 0.131937 0.134522 0.131972 0.134513 0.134522 0.136711 0.134513 0.136657 0.125518 0.128989 0.125602 0.129041 0.128989 0.131972 0.129041 0.131987 0.125602 0.129041 0.125652 0.129066 0.129041 0.131987 0.129066 0.131981 0.131972 0.134513 0.131987 0.134488 0.134513 0.136657 0.134488 0.136593 0.131987 0.134488 0.131981 0.134448 0.134488 0.136593 0.134448 0.136519 0.106086 0.111941 0.105964 0.111906 0.111941 0.117132 0.111906 0.117141 0.105964 0.111906 0.105775 0.111816 0.111906 0.117141 0.111816 0.117103 0.117132 0.121689 0.117141 0.121712 0.121689 0.125652 0.121712 0.12567 0.117141 0.121712 0.117103 0.121697 0.121712 0.12567 0.121697 0.125657 0.105775 0.111816 0.105528 0.111674 0.111816 0.117103 0.111674 0.117021 0.105528 0.111674 0.10523 0.111487 0.111674 0.117021 0.111487 0.116901 0.117103 0.121697 0.117021 0.121645 0.121697 0.125657 0.121645 0.125614 0.117021 0.121645 0.116901 0.12156 0.121645 0.125614 0.12156 0.125543 0.125652 0.129066 0.12567 0.129067 0.129066 0.131981 0.129067 0.131956 0.12567 0.129067 0.125657 0.129042 0.129067 0.131956 0.129042 0.131912 0.131981 0.134448 0.131956 0.134394 0.134448 0.136519 0.134394 0.136433 0.131956 0.134394 0.131912 0.134324 0.134394 0.136433 0.134324 0.136336 0.125657 0.129042 0.125614 0.128993 0.129042 0.131912 0.128993 0.131848 0.125614 0.128993 0.125543 0.128922 0.128993 0.131848 0.128922 0.131766 0.131912 0.134324 0.131848 0.13424 0.134324 0.136336 0.13424 0.136227 0.131848 0.13424 0.131766 0.134141 0.13424 0.136227 0.134141 0.136108 0 0.0192968 0 0.0185962 0.0192968 0.0376627 0.0185962 0.0363112 0 0.0185962 0 0.0180282 0.0185962 0.0363112 0.0180282 0.0352198 0.0376627 0.0541734 0.0363112 0.0525547 0.0541734 0.0682592 0.0525547 0.0667935 0.0363112 0.0525547 0.0352198 0.0512053 0.0525547 0.0667935 0.0512053 0.0654949 0 0.0180282 0 0.0175675 0.0180282 0.0352198 0.0175675 0.0343323 0 0.0175675 0 0.0171925 0.0175675 0.0343323 0.0171925 0.0336056 0.0352198 0.0512053 0.0343323 0.0500729 0.0512053 0.0654949 0.0500729 0.0643476 0.0343323 0.0500729 0.0336056 0.0491172 0.0500729 0.0643476 0.0491172 0.0633352 0.0682592 0.0799343 0.0667935 0.0788286 0.0799343 0.0896812 0.0788286 0.0889211 0.0667935 0.0788286 0.0654949 0.0777786 0.0788286 0.0889211 0.0777786 0.0881561 0.0896812 0.0980169 0.0889211 0.0975075 0.0980169 0.10523 0.0975075 0.104892 0.0889211 0.0975075 0.0881561 0.0969711 0.0975075 0.104892 0.0969711 0.104519 0.0654949 0.0777786 0.0643476 0.0767948 0.0777786 0.0881561 0.0767948 0.0874 0.0643476 0.0767948 0.0633352 0.0758813 0.0767948 0.0874 0.0758813 0.0866632 0.0881561 0.0969711 0.0874 0.0964178 0.0969711 0.104519 0.0964178 0.10412 0.0874 0.0964178 0.0866632 0.0958566 0.0964178 0.10412 0.0958566 0.1037 0 0.0171925 0 0.0168855 0.0171925 0.0336056 0.0168855 0.0330064 0 0.0168855 0 0.0166325 0.0168855 0.0330064 0.0166325 0.0325085 0.0336056 0.0491172 0.0330064 0.0483062 0.0491172 0.0633352 0.0483062 0.0624416 0.0330064 0.0483062 0.0325085 0.0476143 0.0483062 0.0624416 0.0476143 0.061652 0 0.0166325 0 0.0164224 0.0166325 0.0325085 0.0164224 0.0320916 0 0.0164224 0 0.0162464 0.0164224 0.0320916 0.0162464 0.0317399 0.0325085 0.0476143 0.0320916 0.0470208 0.0476143 0.061652 0.0470208 0.0609531 0.0320916 0.0470208 0.0317399 0.0465089 0.0470208 0.0609531 0.0465089 0.060333 0.0633352 0.0758813 0.0624416 0.0750383 0.0758813 0.0866632 0.0750383 0.0859528 0.0624416 0.0750383 0.061652 0.0742635 0.0750383 0.0859528 0.0742635 0.0852736 0.0866632 0.0958566 0.0859528 0.0952947 0.0958566 0.1037 0.0952947 0.103267 0.0859528 0.0952947 0.0852736 0.0947383 0.0952947 0.103267 0.0947383 0.102825 0.061652 0.0742635 0.0609531 0.0735531 0.0742635 0.0852736 0.0735531 0.0846283 0.0609531 0.0735531 0.060333 0.0729028 0.0735531 0.0846283 0.0729028 0.084018 0.0852736 0.0947383 0.0846283 0.0941922 0.0947383 0.102825 0.0941922 0.102378 0.0846283 0.0941922 0.084018 0.09366 0.0941922 0.102378 0.09366 0.101932 0.10523 0.111487 0.104892 0.111261 0.111487 0.116901 0.111261 0.116745 0.104892 0.111261 0.104519 0.111 0.111261 0.116745 0.111 0.116556 0.116901 0.12156 0.116745 0.121444 0.12156 0.125543 0.121444 0.125446 0.116745 0.121444 0.116556 0.121299 0.121444 0.125446 0.121299 0.125324 0.104519 0.111 0.10412 0.11071 0.111 0.116556 0.11071 0.11634 0.10412 0.11071 0.1037 0.110395 0.11071 0.11634 0.110395 0.116098 0.116556 0.121299 0.11634 0.121129 0.121299 0.125324 0.121129 0.12518 0.11634 0.121129 0.116098 0.120935 0.121129 0.12518 0.120935 0.125014 0.125543 0.128922 0.125446 0.128829 0.128922 0.131766 0.128829 0.131667 0.125446 0.128829 0.125324 0.128715 0.128829 0.131667 0.128715 0.13155 0.131766 0.134141 0.131667 0.134028 0.134141 0.136108 0.134028 0.135977 0.131667 0.134028 0.13155 0.133901 0.134028 0.135977 0.133901 0.135834 0.125324 0.128715 0.12518 0.128581 0.128715 0.13155 0.128581 0.131416 0.12518 0.128581 0.125014 0.128429 0.128581 0.131416 0.128429 0.131267 0.13155 0.133901 0.131416 0.13376 0.133901 0.135834 0.13376 0.135681 0.131416 0.13376 0.131267 0.133605 0.13376 0.135681 0.133605 0.135517 0.1037 0.110395 0.103267 0.110061 0.110395 0.116098 0.110061 0.115836 0.103267 0.110061 0.102825 0.109711 0.110061 0.115836 0.109711 0.115554 0.116098 0.120935 0.115836 0.120721 0.120935 0.125014 0.120721 0.124829 0.115836 0.120721 0.115554 0.120488 0.120721 0.124829 0.120488 0.124627 0.102825 0.109711 0.102378 0.10935 0.109711 0.115554 0.10935 0.115258 0.102378 0.10935 0.101932 0.10898 0.10935 0.115258 0.10898 0.114949 0.115554 0.120488 0.115258 0.120238 0.120488 0.124627 0.120238 0.124408 0.115258 0.120238 0.114949 0.119974 0.120238 0.124408 0.119974 0.124175 0.125014 0.128429 0.124829 0.12826 0.128429 0.131267 0.12826 0.131102 0.124829 0.12826 0.124627 0.128074 0.12826 0.131102 0.128074 0.130924 0.131267 0.133605 0.131102 0.133438 0.133605 0.135517 0.133438 0.135342 0.131102 0.133438 0.130924 0.133259 0.133438 0.135342 0.133259 0.135156 0.124627 0.128074 0.124408 0.127874 0.128074 0.130924 0.127874 0.130732 0.124408 0.127874 0.124175 0.12766 0.127874 0.130732 0.12766 0.130527 0.130924 0.133259 0.130732 0.133068 0.133259 0.135156 0.133068 0.13496 0.130732 0.133068 0.130527 0.132866 0.133068 0.13496 0.132866 0.134755 0.136754 0.138636 0.136711 0.138547 0.138636 0.140204 0.138547 0.140075 0.136711 0.138547 0.136657 0.138452 0.138547 0.140075 0.138452 0.139942 0.140204 0.141501 0.140075 0.141335 0.141501 0.142564 0.141335 0.142367 0.140075 0.141335 0.139942 0.141168 0.141335 0.142367 0.141168 0.14217 0.136657 0.138452 0.136593 0.13835 0.138452 0.139942 0.13835 0.139805 0.136593 0.13835 0.136519 0.138241 0.13835 0.139805 0.138241 0.139663 0.139942 0.141168 0.139805 0.140999 0.141168 0.14217 0.140999 0.141971 0.139805 0.140999 0.139663 0.140827 0.140999 0.141971 0.140827 0.141772 0.142564 0.143429 0.142367 0.143205 0.143429 0.144127 0.143205 0.14388 0.142367 0.143205 0.14217 0.142981 0.143205 0.14388 0.142981 0.143634 0.144127 0.144686 0.14388 0.144419 0.144686 0.14513 0.144419 0.144848 0.14388 0.144419 0.143634 0.144154 0.144419 0.144848 0.144154 0.144567 0.14217 0.142981 0.141971 0.142758 0.142981 0.143634 0.142758 0.143389 0.141971 0.142758 0.141772 0.142534 0.142758 0.143389 0.142534 0.143144 0.143634 0.144154 0.143389 0.143891 0.144154 0.144567 0.143891 0.144288 0.143389 0.143891 0.143144 0.143629 0.143891 0.144288 0.143629 0.144011 0.136519 0.138241 0.136433 0.138124 0.138241 0.139663 0.138124 0.139515 0.136433 0.138124 0.136336 0.137999 0.138124 0.139515 0.137999 0.139362 0.139663 0.140827 0.139515 0.140651 0.140827 0.141772 0.140651 0.141571 0.139515 0.140651 0.139362 0.140472 0.140651 0.141571 0.140472 0.141368 0.136336 0.137999 0.136227 0.137865 0.137999 0.139362 0.137865 0.139203 0.136227 0.137865 0.136108 0.137722 0.137865 0.139203 0.137722 0.139038 0.139362 0.140472 0.139203 0.140289 0.140472 0.141368 0.140289 0.141162 0.139203 0.140289 0.139038 0.140101 0.140289 0.141162 0.140101 0.140952 0.141772 0.142534 0.141571 0.14231 0.142534 0.143144 0.14231 0.1429 0.141571 0.14231 0.141368 0.142085 0.14231 0.1429 0.142085 0.142656 0.143144 0.143629 0.1429 0.143367 0.143629 0.144011 0.143367 0.143735 0.1429 0.143367 0.142656 0.143106 0.143367 0.143735 0.143106 0.143459 0.141368 0.142085 0.141162 0.141859 0.142085 0.142656 0.141859 0.142411 0.141162 0.141859 0.140952 0.14163 0.141859 0.142411 0.14163 0.142165 0.142656 0.143106 0.142411 0.142845 0.143106 0.143459 0.142845 0.143184 0.142411 0.142845 0.142165 0.142583 0.142845 0.143184 0.142583 0.142909 0.14513 0.14548 0.144848 0.145185 0.14548 0.145755 0.145185 0.145449 0.144848 0.145185 0.144567 0.144892 0.145185 0.145449 0.144892 0.145145 0.145755 0.145967 0.145449 0.145654 0.145967 0.146132 0.145654 0.145812 0.145449 0.145654 0.145145 0.145342 0.145654 0.145812 0.145342 0.145494 0.144567 0.144892 0.144288 0.1446 0.144892 0.145145 0.1446 0.144844 0.144288 0.1446 0.144011 0.144311 0.1446 0.144844 0.144311 0.144544 0.145145 0.145342 0.144844 0.145032 0.145342 0.145494 0.145032 0.145177 0.144844 0.145032 0.144544 0.144724 0.145032 0.145177 0.144724 0.144862 0.146132 0.146257 0.145812 0.145932 0.146257 0.146352 0.145932 0.146024 0.145812 0.145932 0.145494 0.145609 0.145932 0.146024 0.145609 0.145697 0.146352 0.146424 0.146024 0.146093 0.146424 0.146477 0.146093 0.146144 0.146024 0.146093 0.145697 0.145763 0.146093 0.146144 0.145763 0.145813 0.145494 0.145609 0.145177 0.145288 0.145609 0.145697 0.145288 0.145372 0.145177 0.145288 0.144862 0.144967 0.145288 0.145372 0.144967 0.145047 0.145697 0.145763 0.145372 0.145435 0.145763 0.145813 0.145435 0.145482 0.145372 0.145435 0.145047 0.145107 0.145435 0.145482 0.145107 0.145152 0.144011 0.144311 0.143735 0.144022 0.144311 0.144544 0.144022 0.144245 0.143735 0.144022 0.143459 0.143734 0.144022 0.144245 0.143734 0.143947 0.144544 0.144724 0.144245 0.144417 0.144724 0.144862 0.144417 0.144548 0.144245 0.144417 0.143947 0.14411 0.144417 0.144548 0.14411 0.144235 0.143459 0.143734 0.143184 0.143447 0.143734 0.143947 0.143447 0.14365 0.143184 0.143447 0.142909 0.143161 0.143447 0.14365 0.143161 0.143353 0.143947 0.14411 0.14365 0.143805 0.14411 0.144235 0.143805 0.143923 0.14365 0.143805 0.143353 0.1435 0.143805 0.143923 0.1435 0.143612 0.144862 0.144967 0.144548 0.144648 0.144967 0.145047 0.144648 0.144724 0.144548 0.144648 0.144235 0.14433 0.144648 0.144724 0.14433 0.144401 0.145047 0.145107 0.144724 0.144781 0.145107 0.145152 0.144781 0.144823 0.144724 0.144781 0.144401 0.144455 0.144781 0.144823 0.144455 0.144495 0.144235 0.14433 0.143923 0.144012 0.14433 0.144401 0.144012 0.144079 0.143923 0.144012 0.143612 0.143696 0.144012 0.144079 0.143696 0.143758 0.144401 0.144455 0.144079 0.144129 0.144455 0.144495 0.144129 0.144167 0.144079 0.144129 0.143758 0.143805 0.144129 0.144167 0.143805 0.143839 0.136108 0.137722 0.135977 0.137571 0.137722 0.139038 0.137571 0.138866 0.135977 0.137571 0.135834 0.137411 0.137571 0.138866 0.137411 0.138687 0.139038 0.140101 0.138866 0.139908 0.140101 0.140952 0.139908 0.14074 0.138866 0.139908 0.138687 0.13971 0.139908 0.14074 0.13971 0.140524 0.135834 0.137411 0.135681 0.137243 0.137411 0.138687 0.137243 0.138501 0.135681 0.137243 0.135517 0.137065 0.137243 0.138501 0.137065 0.138308 0.138687 0.13971 0.138501 0.139507 0.13971 0.140524 0.139507 0.140303 0.138501 0.139507 0.138308 0.139298 0.139507 0.140303 0.139298 0.140079 0.140952 0.14163 0.14074 0.141399 0.14163 0.142165 0.141399 0.141917 0.14074 0.141399 0.140524 0.141165 0.141399 0.141917 0.141165 0.141667 0.142165 0.142583 0.141917 0.142321 0.142583 0.142909 0.142321 0.142633 0.141917 0.142321 0.141667 0.142057 0.142321 0.142633 0.142057 0.142357 0.140524 0.141165 0.140303 0.140929 0.141165 0.141667 0.140929 0.141416 0.140303 0.140929 0.140079 0.140689 0.140929 0.141416 0.140689 0.141162 0.141667 0.142057 0.141416 0.141792 0.142057 0.142357 0.141792 0.14208 0.141416 0.141792 0.141162 0.141525 0.141792 0.14208 0.141525 0.141802 0.135517 0.137065 0.135342 0.136879 0.137065 0.138308 0.136879 0.138108 0.135342 0.136879 0.135156 0.136683 0.136879 0.138108 0.136683 0.137901 0.138308 0.139298 0.138108 0.139084 0.139298 0.140079 0.139084 0.13985 0.138108 0.139084 0.137901 0.138863 0.139084 0.13985 0.138863 0.139616 0.135156 0.136683 0.13496 0.136479 0.136683 0.137901 0.136479 0.137687 0.13496 0.136479 0.134755 0.136267 0.136479 0.137687 0.136267 0.137465 0.137901 0.138863 0.137687 0.138637 0.138863 0.139616 0.138637 0.139377 0.137687 0.138637 0.137465 0.138404 0.138637 0.139377 0.138404 0.139134 0.140079 0.140689 0.13985 0.140446 0.140689 0.141162 0.140446 0.140906 0.13985 0.140446 0.139616 0.140199 0.140446 0.140906 0.140199 0.140646 0.141162 0.141525 0.140906 0.141257 0.141525 0.141802 0.141257 0.141523 0.140906 0.141257 0.140646 0.140986 0.141257 0.141523 0.140986 0.141241 0.139616 0.140199 0.139377 0.139948 0.140199 0.140646 0.139948 0.140384 0.139377 0.139948 0.139134 0.139693 0.139948 0.140384 0.139693 0.140118 0.140646 0.140986 0.140384 0.140713 0.140986 0.141241 0.140713 0.140958 0.140384 0.140713 0.140118 0.140437 0.140713 0.140958 0.140437 0.140673 0.142909 0.143161 0.142633 0.142874 0.143161 0.143353 0.142874 0.143057 0.142633 0.142874 0.142357 0.142587 0.142874 0.143057 0.142587 0.142761 0.143353 0.1435 0.143057 0.143196 0.1435 0.143612 0.143196 0.143301 0.143057 0.143196 0.142761 0.142892 0.143196 0.143301 0.142892 0.14299 0.142357 0.142587 0.14208 0.142299 0.142587 0.142761 0.142299 0.142464 0.14208 0.142299 0.141802 0.142011 0.142299 0.142464 0.142011 0.142167 0.142761 0.142892 0.142464 0.142588 0.142892 0.14299 0.142588 0.142679 0.142464 0.142588 0.142167 0.142283 0.142588 0.142679 0.142283 0.142369 0.143612 0.143696 0.143301 0.143379 0.143696 0.143758 0.143379 0.143437 0.143301 0.143379 0.14299 0.143063 0.143379 0.143437 0.143063 0.143117 0.143758 0.143805 0.143437 0.14348 0.143805 0.143839 0.14348 0.143512 0.143437 0.14348 0.143117 0.143156 0.14348 0.143512 0.143156 0.143185 0.14299 0.143063 0.142679 0.142747 0.143063 0.143117 0.142747 0.142797 0.142679 0.142747 0.142369 0.142431 0.142747 0.142797 0.142431 0.142477 0.143117 0.143156 0.142797 0.142833 0.143156 0.143185 0.142833 0.142859 0.142797 0.142833 0.142477 0.142509 0.142833 0.142859 0.142509 0.142533 0.141802 0.142011 0.141523 0.141722 0.142011 0.142167 0.141722 0.14187 0.141523 0.141722 0.141241 0.141431 0.141722 0.14187 0.141431 0.141571 0.142167 0.142283 0.14187 0.141979 0.142283 0.142369 0.141979 0.142058 0.14187 0.141979 0.141571 0.141673 0.141979 0.142058 0.141673 0.141747 0.141241 0.141431 0.140958 0.14114 0.141431 0.141571 0.14114 0.141272 0.140958 0.14114 0.140673 0.140846 0.14114 0.141272 0.140846 0.140971 0.141571 0.141673 0.141272 0.141367 0.141673 0.141747 0.141367 0.141435 0.141272 0.141367 0.140971 0.14106 0.141367 0.141435 0.14106 0.141123 0.142369 0.142431 0.142058 0.142115 0.142431 0.142477 0.142115 0.142156 0.142058 0.142115 0.141747 0.141799 0.142115 0.142156 0.141799 0.141836 0.142477 0.142509 0.142156 0.142186 0.142509 0.142533 0.142186 0.142206 0.142156 0.142186 0.141836 0.141862 0.142186 0.142206 0.141862 0.14188 0.141747 0.141799 0.141435 0.141483 0.141799 0.141836 0.141483 0.141516 0.141435 0.141483 0.141123 0.141166 0.141483 0.141516 0.141166 0.141195 0.141836 0.141862 0.141516 0.141538 0.141862 0.14188 0.141538 0.141554 0.141516 0.141538 0.141195 0.141215 0.141538 0.141554 0.141215 0.141227 0 0.0162464 0 0.0160978 0.0162464 0.0317399 0.0160978 0.0314406 0 0.0160978 0 0.0159711 0.0160978 0.0314406 0.0159711 0.0311838 0.0317399 0.0465089 0.0314406 0.0460648 0.0465089 0.060333 0.0460648 0.0597814 0.0314406 0.0460648 0.0311838 0.0456773 0.0460648 0.0597814 0.0456773 0.0592891 0 0.0159711 0 0.0158621 0.0159711 0.0311838 0.0158621 0.0309616 0 0.0158621 0 0.0157674 0.0158621 0.0309616 0.0157674 0.0307676 0.0311838 0.0456773 0.0309616 0.045337 0.0456773 0.0592891 0.045337 0.0588484 0.0309616 0.045337 0.0307676 0.0450364 0.045337 0.0588484 0.0450364 0.0584523 0.060333 0.0729028 0.0597814 0.0723077 0.0729028 0.084018 0.0723077 0.0834429 0.0597814 0.0723077 0.0592891 0.071763 0.0723077 0.0834429 0.071763 0.0829023 0.084018 0.09366 0.0834429 0.0931443 0.09366 0.101932 0.0931443 0.101488 0.0834429 0.0931443 0.0829023 0.0926467 0.0931443 0.101488 0.0926467 0.10105 0.0592891 0.071763 0.0588484 0.0712641 0.071763 0.0829023 0.0712641 0.0823949 0.0588484 0.0712641 0.0584523 0.0708065 0.0712641 0.0823949 0.0708065 0.0819192 0.0829023 0.0926467 0.0823949 0.0921686 0.0926467 0.10105 0.0921686 0.10062 0.0823949 0.0921686 0.0819192 0.0917102 0.0921686 0.10062 0.0917102 0.100199 0 0.0157674 0 0.0156843 0.0157674 0.0307676 0.0156843 0.0305969 0 0.0156843 0 0.0156107 0.0156843 0.0305969 0.0156107 0.0304453 0.0307676 0.0450364 0.0305969 0.0447692 0.0450364 0.0584523 0.0447692 0.058095 0.0305969 0.0447692 0.0304453 0.0445301 0.0447692 0.058095 0.0445301 0.0577713 0 0.0156107 0 0.0155448 0.01