# vtk DataFile Version 3.0
#This file was generated by the deal.II library on 2022/1/6 at 23:05:25
ASCII
DATASET UNSTRUCTURED_GRID

POINTS 16384 double
0 0 0
0.1875 0 0
0 0.046875 0
0.1875 0.046875 0
0.1875 0 0
0.375 0 0
0.1875 0.046875 0
0.375 0.046875 0
0 0.046875 0
0.1875 0.046875 0
0 0.09375 0
0.1875 0.09375 0
0.1875 0.046875 0
0.375 0.046875 0
0.1875 0.09375 0
0.375 0.09375 0
0.375 0 0
0.5625 0 0
0.375 0.046875 0
0.5625 0.046875 0
0.5625 0 0
0.75 0 0
0.5625 0.046875 0
0.75 0.046875 0
0.375 0.046875 0
0.5625 0.046875 0
0.375 0.09375 0
0.5625 0.09375 0
0.5625 0.046875 0
0.75 0.046875 0
0.5625 0.09375 0
0.75 0.09375 0
0 0.09375 0
0.1875 0.09375 0
0 0.140625 0
0.1875 0.140625 0
0.1875 0.09375 0
0.375 0.09375 0
0.1875 0.140625 0
0.375 0.140625 0
0 0.140625 0
0.1875 0.140625 0
0 0.1875 0
0.1875 0.1875 0
0.1875 0.140625 0
0.375 0.140625 0
0.1875 0.1875 0
0.375 0.1875 0
0.375 0.09375 0
0.5625 0.09375 0
0.375 0.140625 0
0.5625 0.140625 0
0.5625 0.09375 0
0.75 0.09375 0
0.5625 0.140625 0
0.75 0.140625 0
0.375 0.140625 0
0.5625 0.140625 0
0.375 0.1875 0
0.5625 0.1875 0
0.5625 0.140625 0
0.75 0.140625 0
0.5625 0.1875 0
0.75 0.1875 0
0.75 0 0
0.9375 0 0
0.75 0.046875 0
0.9375 0.046875 0
0.9375 0 0
1.125 0 0
0.9375 0.046875 0
1.125 0.046875 0
0.75 0.046875 0
0.9375 0.046875 0
0.75 0.09375 0
0.9375 0.09375 0
0.9375 0.046875 0
1.125 0.046875 0
0.9375 0.09375 0
1.125 0.09375 0
1.125 0 0
1.3125 0 0
1.125 0.046875 0
1.3125 0.046875 0
1.3125 0 0
1.5 0 0
1.3125 0.046875 0
1.5 0.046875 0
1.125 0.046875 0
1.3125 0.046875 0
1.125 0.09375 0
1.3125 0.09375 0
1.3125 0.046875 0
1.5 0.046875 0
1.3125 0.09375 0
1.5 0.09375 0
0.75 0.09375 0
0.9375 0.09375 0
0.75 0.140625 0
0.9375 0.140625 0
0.9375 0.09375 0
1.125 0.09375 0
0.9375 0.140625 0
1.125 0.140625 0
0.75 0.140625 0
0.9375 0.140625 0
0.75 0.1875 0
0.9375 0.1875 0
0.9375 0.140625 0
1.125 0.140625 0
0.9375 0.1875 0
1.125 0.1875 0
1.125 0.09375 0
1.3125 0.09375 0
1.125 0.140625 0
1.3125 0.140625 0
1.3125 0.09375 0
1.5 0.09375 0
1.3125 0.140625 0
1.5 0.140625 0
1.125 0.140625 0
1.3125 0.140625 0
1.125 0.1875 0
1.3125 0.1875 0
1.3125 0.140625 0
1.5 0.140625 0
1.3125 0.1875 0
1.5 0.1875 0
0 0.1875 0
0.1875 0.1875 0
0 0.234375 0
0.1875 0.234375 0
0.1875 0.1875 0
0.375 0.1875 0
0.1875 0.234375 0
0.375 0.234375 0
0 0.234375 0
0.1875 0.234375 0
0 0.28125 0
0.1875 0.28125 0
0.1875 0.234375 0
0.375 0.234375 0
0.1875 0.28125 0
0.375 0.28125 0
0.375 0.1875 0
0.5625 0.1875 0
0.375 0.234375 0
0.5625 0.234375 0
0.5625 0.1875 0
0.75 0.1875 0
0.5625 0.234375 0
0.75 0.234375 0
0.375 0.234375 0
0.5625 0.234375 0
0.375 0.28125 0
0.5625 0.28125 0
0.5625 0.234375 0
0.75 0.234375 0
0.5625 0.28125 0
0.75 0.28125 0
0 0.28125 0
0.1875 0.28125 0
0 0.328125 0
0.1875 0.328125 0
0.1875 0.28125 0
0.375 0.28125 0
0.1875 0.328125 0
0.375 0.328125 0
0 0.328125 0
0.1875 0.328125 0
0 0.375 0
0.1875 0.375 0
0.1875 0.328125 0
0.375 0.328125 0
0.1875 0.375 0
0.375 0.375 0
0.375 0.28125 0
0.5625 0.28125 0
0.375 0.328125 0
0.5625 0.328125 0
0.5625 0.28125 0
0.75 0.28125 0
0.5625 0.328125 0
0.75 0.328125 0
0.375 0.328125 0
0.5625 0.328125 0
0.375 0.375 0
0.5625 0.375 0
0.5625 0.328125 0
0.75 0.328125 0
0.5625 0.375 0
0.75 0.375 0
0.75 0.1875 0
0.9375 0.1875 0
0.75 0.234375 0
0.9375 0.234375 0
0.9375 0.1875 0
1.125 0.1875 0
0.9375 0.234375 0
1.125 0.234375 0
0.75 0.234375 0
0.9375 0.234375 0
0.75 0.28125 0
0.9375 0.28125 0
0.9375 0.234375 0
1.125 0.234375 0
0.9375 0.28125 0
1.125 0.28125 0
1.125 0.1875 0
1.3125 0.1875 0
1.125 0.234375 0
1.3125 0.234375 0
1.3125 0.1875 0
1.5 0.1875 0
1.3125 0.234375 0
1.5 0.234375 0
1.125 0.234375 0
1.3125 0.234375 0
1.125 0.28125 0
1.3125 0.28125 0
1.3125 0.234375 0
1.5 0.234375 0
1.3125 0.28125 0
1.5 0.28125 0
0.75 0.28125 0
0.9375 0.28125 0
0.75 0.328125 0
0.9375 0.328125 0
0.9375 0.28125 0
1.125 0.28125 0
0.9375 0.328125 0
1.125 0.328125 0
0.75 0.328125 0
0.9375 0.328125 0
0.75 0.375 0
0.9375 0.375 0
0.9375 0.328125 0
1.125 0.328125 0
0.9375 0.375 0
1.125 0.375 0
1.125 0.28125 0
1.3125 0.28125 0
1.125 0.328125 0
1.3125 0.328125 0
1.3125 0.28125 0
1.5 0.28125 0
1.3125 0.328125 0
1.5 0.328125 0
1.125 0.328125 0
1.3125 0.328125 0
1.125 0.375 0
1.3125 0.375 0
1.3125 0.328125 0
1.5 0.328125 0
1.3125 0.375 0
1.5 0.375 0
1.5 0 0
1.6875 0 0
1.5 0.046875 0
1.6875 0.046875 0
1.6875 0 0
1.875 0 0
1.6875 0.046875 0
1.875 0.046875 0
1.5 0.046875 0
1.6875 0.046875 0
1.5 0.09375 0
1.6875 0.09375 0
1.6875 0.046875 0
1.875 0.046875 0
1.6875 0.09375 0
1.875 0.09375 0
1.875 0 0
2.0625 0 0
1.875 0.046875 0
2.0625 0.046875 0
2.0625 0 0
2.25 0 0
2.0625 0.046875 0
2.25 0.046875 0
1.875 0.046875 0
2.0625 0.046875 0
1.875 0.09375 0
2.0625 0.09375 0
2.0625 0.046875 0
2.25 0.046875 0
2.0625 0.09375 0
2.25 0.09375 0
1.5 0.09375 0
1.6875 0.09375 0
1.5 0.140625 0
1.6875 0.140625 0
1.6875 0.09375 0
1.875 0.09375 0
1.6875 0.140625 0
1.875 0.140625 0
1.5 0.140625 0
1.6875 0.140625 0
1.5 0.1875 0
1.6875 0.1875 0
1.6875 0.140625 0
1.875 0.140625 0
1.6875 0.1875 0
1.875 0.1875 0
1.875 0.09375 0
2.0625 0.09375 0
1.875 0.140625 0
2.0625 0.140625 0
2.0625 0.09375 0
2.25 0.09375 0
2.0625 0.140625 0
2.25 0.140625 0
1.875 0.140625 0
2.0625 0.140625 0
1.875 0.1875 0
2.0625 0.1875 0
2.0625 0.140625 0
2.25 0.140625 0
2.0625 0.1875 0
2.25 0.1875 0
2.25 0 0
2.4375 0 0
2.25 0.046875 0
2.4375 0.046875 0
2.4375 0 0
2.625 0 0
2.4375 0.046875 0
2.625 0.046875 0
2.25 0.046875 0
2.4375 0.046875 0
2.25 0.09375 0
2.4375 0.09375 0
2.4375 0.046875 0
2.625 0.046875 0
2.4375 0.09375 0
2.625 0.09375 0
2.625 0 0
2.8125 0 0
2.625 0.046875 0
2.8125 0.046875 0
2.8125 0 0
3 0 0
2.8125 0.046875 0
3 0.046875 0
2.625 0.046875 0
2.8125 0.046875 0
2.625 0.09375 0
2.8125 0.09375 0
2.8125 0.046875 0
3 0.046875 0
2.8125 0.09375 0
3 0.09375 0
2.25 0.09375 0
2.4375 0.09375 0
2.25 0.140625 0
2.4375 0.140625 0
2.4375 0.09375 0
2.625 0.09375 0
2.4375 0.140625 0
2.625 0.140625 0
2.25 0.140625 0
2.4375 0.140625 0
2.25 0.1875 0
2.4375 0.1875 0
2.4375 0.140625 0
2.625 0.140625 0
2.4375 0.1875 0
2.625 0.1875 0
2.625 0.09375 0
2.8125 0.09375 0
2.625 0.140625 0
2.8125 0.140625 0
2.8125 0.09375 0
3 0.09375 0
2.8125 0.140625 0
3 0.140625 0
2.625 0.140625 0
2.8125 0.140625 0
2.625 0.1875 0
2.8125 0.1875 0
2.8125 0.140625 0
3 0.140625 0
2.8125 0.1875 0
3 0.1875 0
1.5 0.1875 0
1.6875 0.1875 0
1.5 0.234375 0
1.6875 0.234375 0
1.6875 0.1875 0
1.875 0.1875 0
1.6875 0.234375 0
1.875 0.234375 0
1.5 0.234375 0
1.6875 0.234375 0
1.5 0.28125 0
1.6875 0.28125 0
1.6875 0.234375 0
1.875 0.234375 0
1.6875 0.28125 0
1.875 0.28125 0
1.875 0.1875 0
2.0625 0.1875 0
1.875 0.234375 0
2.0625 0.234375 0
2.0625 0.1875 0
2.25 0.1875 0
2.0625 0.234375 0
2.25 0.234375 0
1.875 0.234375 0
2.0625 0.234375 0
1.875 0.28125 0
2.0625 0.28125 0
2.0625 0.234375 0
2.25 0.234375 0
2.0625 0.28125 0
2.25 0.28125 0
1.5 0.28125 0
1.6875 0.28125 0
1.5 0.328125 0
1.6875 0.328125 0
1.6875 0.28125 0
1.875 0.28125 0
1.6875 0.328125 0
1.875 0.328125 0
1.5 0.328125 0
1.6875 0.328125 0
1.5 0.375 0
1.6875 0.375 0
1.6875 0.328125 0
1.875 0.328125 0
1.6875 0.375 0
1.875 0.375 0
1.875 0.28125 0
2.0625 0.28125 0
1.875 0.328125 0
2.0625 0.328125 0
2.0625 0.28125 0
2.25 0.28125 0
2.0625 0.328125 0
2.25 0.328125 0
1.875 0.328125 0
2.0625 0.328125 0
1.875 0.375 0
2.0625 0.375 0
2.0625 0.328125 0
2.25 0.328125 0
2.0625 0.375 0
2.25 0.375 0
2.25 0.1875 0
2.4375 0.1875 0
2.25 0.234375 0
2.4375 0.234375 0
2.4375 0.1875 0
2.625 0.1875 0
2.4375 0.234375 0
2.625 0.234375 0
2.25 0.234375 0
2.4375 0.234375 0
2.25 0.28125 0
2.4375 0.28125 0
2.4375 0.234375 0
2.625 0.234375 0
2.4375 0.28125 0
2.625 0.28125 0
2.625 0.1875 0
2.8125 0.1875 0
2.625 0.234375 0
2.8125 0.234375 0
2.8125 0.1875 0
3 0.1875 0
2.8125 0.234375 0
3 0.234375 0
2.625 0.234375 0
2.8125 0.234375 0
2.625 0.28125 0
2.8125 0.28125 0
2.8125 0.234375 0
3 0.234375 0
2.8125 0.28125 0
3 0.28125 0
2.25 0.28125 0
2.4375 0.28125 0
2.25 0.328125 0
2.4375 0.328125 0
2.4375 0.28125 0
2.625 0.28125 0
2.4375 0.328125 0
2.625 0.328125 0
2.25 0.328125 0
2.4375 0.328125 0
2.25 0.375 0
2.4375 0.375 0
2.4375 0.328125 0
2.625 0.328125 0
2.4375 0.375 0
2.625 0.375 0
2.625 0.28125 0
2.8125 0.28125 0
2.625 0.328125 0
2.8125 0.328125 0
2.8125 0.28125 0
3 0.28125 0
2.8125 0.328125 0
3 0.328125 0
2.625 0.328125 0
2.8125 0.328125 0
2.625 0.375 0
2.8125 0.375 0
2.8125 0.328125 0
3 0.328125 0
2.8125 0.375 0
3 0.375 0
0 0.375 0
0.1875 0.375 0
0 0.421875 0
0.1875 0.421875 0
0.1875 0.375 0
0.375 0.375 0
0.1875 0.421875 0
0.375 0.421875 0
0 0.421875 0
0.1875 0.421875 0
0 0.46875 0
0.1875 0.46875 0
0.1875 0.421875 0
0.375 0.421875 0
0.1875 0.46875 0
0.375 0.46875 0
0.375 0.375 0
0.5625 0.375 0
0.375 0.421875 0
0.5625 0.421875 0
0.5625 0.375 0
0.75 0.375 0
0.5625 0.421875 0
0.75 0.421875 0
0.375 0.421875 0
0.5625 0.421875 0
0.375 0.46875 0
0.5625 0.46875 0
0.5625 0.421875 0
0.75 0.421875 0
0.5625 0.46875 0
0.75 0.46875 0
0 0.46875 0
0.1875 0.46875 0
0 0.515625 0
0.1875 0.515625 0
0.1875 0.46875 0
0.375 0.46875 0
0.1875 0.515625 0
0.375 0.515625 0
0 0.515625 0
0.1875 0.515625 0
0 0.5625 0
0.1875 0.5625 0
0.1875 0.515625 0
0.375 0.515625 0
0.1875 0.5625 0
0.375 0.5625 0
0.375 0.46875 0
0.5625 0.46875 0
0.375 0.515625 0
0.5625 0.515625 0
0.5625 0.46875 0
0.75 0.46875 0
0.5625 0.515625 0
0.75 0.515625 0
0.375 0.515625 0
0.5625 0.515625 0
0.375 0.5625 0
0.5625 0.5625 0
0.5625 0.515625 0
0.75 0.515625 0
0.5625 0.5625 0
0.75 0.5625 0
0.75 0.375 0
0.9375 0.375 0
0.75 0.421875 0
0.9375 0.421875 0
0.9375 0.375 0
1.125 0.375 0
0.9375 0.421875 0
1.125 0.421875 0
0.75 0.421875 0
0.9375 0.421875 0
0.75 0.46875 0
0.9375 0.46875 0
0.9375 0.421875 0
1.125 0.421875 0
0.9375 0.46875 0
1.125 0.46875 0
1.125 0.375 0
1.3125 0.375 0
1.125 0.421875 0
1.3125 0.421875 0
1.3125 0.375 0
1.5 0.375 0
1.3125 0.421875 0
1.5 0.421875 0
1.125 0.421875 0
1.3125 0.421875 0
1.125 0.46875 0
1.3125 0.46875 0
1.3125 0.421875 0
1.5 0.421875 0
1.3125 0.46875 0
1.5 0.46875 0
0.75 0.46875 0
0.9375 0.46875 0
0.75 0.515625 0
0.9375 0.515625 0
0.9375 0.46875 0
1.125 0.46875 0
0.9375 0.515625 0
1.125 0.515625 0
0.75 0.515625 0
0.9375 0.515625 0
[...]
POINT_DATA 16384
SCALARS x_displacement double 1
LOOKUP_TABLE default
0 0.0340688 0 0.0304062 0.0340688 0.0602073 0.0304062 0.0584398 0 0.0304062 0 0.0278963 0.0304062 0.0584398 0.0278963 0.0555843 0.0602073 0.0768947 0.0584398 0.0754902 0.0768947 0.0839651 0.0754902 0.0830605 0.0584398 0.0754902 0.0555843 0.0734119 0.0754902 0.0830605 0.0734119 0.0817238 0 0.0278963 0 0.0258438 0.0278963 0.0555843 0.0258438 0.0519498 0 0.0258438 0 0.0241257 0.0258438 0.0519498 0.0241257 0.0482727 0.0555843 0.0734119 0.0519498 0.070556 0.0734119 0.0817238 0.070556 0.079993 0.0519498 0.070556 0.0482727 0.0667741 0.070556 0.079993 0.0667741 0.0779989 0.0839651 0.0907715 0.0830605 0.090339 0.0907715 0.0982666 0.090339 0.0981881 0.0830605 0.090339 0.0817238 0.0896771 0.090339 0.0981881 0.0896771 0.097934 0.0982666 0.105964 0.0981881 0.106044 0.105964 0.113468 0.106044 0.11363 0.0981881 0.106044 0.097934 0.106002 0.106044 0.11363 0.106002 0.113699 0.0817238 0.0896771 0.079993 0.0888257 0.0896771 0.097934 0.0888257 0.0975321 0.079993 0.0888257 0.0779989 0.0878314 0.0888257 0.0975321 0.0878314 0.0970039 0.097934 0.106002 0.0975321 0.105846 0.106002 0.113699 0.105846 0.11368 0.0975321 0.105846 0.0970039 0.105591 0.105846 0.11368 0.105591 0.113581 0 0.0241257 0 0.022675 0.0241257 0.0482727 0.022675 0.0448406 0 0.022675 0 0.0214031 0.022675 0.0448406 0.0214031 0.0421179 0.0482727 0.0667741 0.0448406 0.062946 0.0667741 0.0779989 0.062946 0.0759761 0.0448406 0.062946 0.0421179 0.0598752 0.062946 0.0759761 0.0598752 0.07396 0 0.0214031 0 0.0203326 0.0214031 0.0421179 0.0203326 0.0399563 0 0.0203326 0 0.0194512 0.0203326 0.0399563 0.0194512 0.0382319 0.0421179 0.0598752 0.0399563 0.0574161 0.0598752 0.07396 0.0574161 0.072077 0.0399563 0.0574161 0.0382319 0.0554054 0.0574161 0.072077 0.0554054 0.070375 0.0779989 0.0878314 0.0759761 0.0867165 0.0878314 0.0970039 0.0867165 0.096377 0.0759761 0.0867165 0.07396 0.0855378 0.0867165 0.096377 0.0855378 0.0956724 0.0970039 0.105591 0.096377 0.105249 0.105591 0.113581 0.105249 0.113411 0.096377 0.105249 0.0956724 0.104835 0.105249 0.113411 0.104835 0.113177 0.07396 0.0855378 0.072077 0.084328 0.0855378 0.0956724 0.084328 0.0949141 0.072077 0.084328 0.070375 0.0831281 0.084328 0.0949141 0.0831281 0.0941211 0.0956724 0.104835 0.0949141 0.104362 0.104835 0.113177 0.104362 0.112888 0.0949141 0.104362 0.0941211 0.103842 0.104362 0.112888 0.103842 0.112552 0.113468 0.120593 0.11363 0.120792 0.120593 0.127246 0.120792 0.127453 0.11363 0.120792 0.113699 0.120918 0.120792 0.127453 0.120918 0.1276 0.127246 0.13338 0.127453 0.133574 0.13338 0.138976 0.133574 0.139145 0.127453 0.133574 0.1276 0.13372 0.133574 0.139145 0.13372 0.139275 0.113699 0.120918 0.11368 0.120973 0.120918 0.1276 0.120973 0.127691 0.11368 0.120973 0.113581 0.120963 0.120973 0.127691 0.120963 0.127728 0.1276 0.13372 0.127691 0.133821 0.13372 0.139275 0.133821 0.139369 0.127691 0.133821 0.127728 0.133878 0.133821 0.139369 0.133878 0.139426 0.138976 0.144034 0.139145 0.144169 0.144034 0.148567 0.144169 0.148664 0.139145 0.144169 0.139275 0.144274 0.144169 0.148664 0.144274 0.148738 0.148567 0.152597 0.148664 0.152655 0.152597 0.156155 0.152655 0.156172 0.148664 0.152655 0.148738 0.152694 0.152655 0.156172 0.152694 0.156174 0.139275 0.144274 0.139369 0.144349 0.144274 0.148738 0.144349 0.148787 0.139369 0.144349 0.139426 0.144395 0.144349 0.148787 0.144395 0.148813 0.148738 0.152694 0.148787 0.152713 0.152694 0.156174 0.152713 0.156162 0.148787 0.152713 0.148813 0.152714 0.152713 0.156162 0.152714 0.156135 0.113581 0.120963 0.113411 0.120894 0.120963 0.127728 0.120894 0.127716 0.113411 0.120894 0.113177 0.120771 0.120894 0.127716 0.120771 0.127658 0.127728 0.133878 0.127716 0.133894 0.133878 0.139426 0.133894 0.13945 0.127716 0.133894 0.127658 0.133871 0.133894 0.13945 0.133871 0.139441 0.113177 0.120771 0.112888 0.120599 0.120771 0.127658 0.120599 0.127558 0.112888 0.120599 0.112552 0.120383 0.120599 0.127558 0.120383 0.127419 0.127658 0.133871 0.127558 0.133812 0.133871 0.139441 0.133812 0.139402 0.127558 0.133812 0.127419 0.133719 0.133812 0.139402 0.133719 0.139334 0.139426 0.144395 0.13945 0.144413 0.144395 0.148813 0.144413 0.148816 0.13945 0.144413 0.139441 0.144404 0.144413 0.148816 0.144404 0.148797 0.148813 0.152714 0.148816 0.152696 0.152714 0.156135 0.152696 0.156092 0.148816 0.152696 0.148797 0.15266 0.152696 0.156092 0.15266 0.156035 0.139441 0.144404 0.139402 0.144369 0.144404 0.148797 0.144369 0.148756 0.139402 0.144369 0.139334 0.14431 0.144369 0.148756 0.14431 0.148694 0.148797 0.15266 0.148756 0.152606 0.15266 0.156035 0.152606 0.155964 0.148756 0.152606 0.148694 0.152535 0.152606 0.155964 0.152535 0.155878 0 0.0194512 0 0.0187335 0.0194512 0.0382319 0.0187335 0.0368472 0 0.0187335 0 0.0181511 0.0187335 0.0368472 0.0181511 0.0357276 0.0382319 0.0554054 0.0368472 0.0537414 0.0554054 0.070375 0.0537414 0.0688578 0.0368472 0.0537414 0.0357276 0.0523528 0.0537414 0.0688578 0.0523528 0.0675138 0 0.0181511 0 0.0176782 0.0181511 0.0357276 0.0176782 0.0348161 0 0.0176782 0 0.0172928 0.0176782 0.0348161 0.0172928 0.0340691 0.0357276 0.0523528 0.0348161 0.0511867 0.0523528 0.0675138 0.0511867 0.0663269 0.0348161 0.0511867 0.0340691 0.0502019 0.0511867 0.0663269 0.0502019 0.0652797 0.070375 0.0831281 0.0688578 0.08197 0.0831281 0.0941211 0.08197 0.0933114 0.0688578 0.08197 0.0675138 0.0808732 0.08197 0.0933114 0.0808732 0.0925017 0.0941211 0.103842 0.0933114 0.103289 0.103842 0.112552 0.103289 0.112177 0.0933114 0.103289 0.0925017 0.102713 0.103289 0.112177 0.102713 0.111771 0.0675138 0.0808732 0.0663269 0.0798476 0.0808732 0.0925017 0.0798476 0.0917053 0.0663269 0.0798476 0.0652797 0.0788971 0.0798476 0.0917053 0.0788971 0.0909321 0.0925017 0.102713 0.0917053 0.102123 0.102713 0.111771 0.102123 0.111341 0.0917053 0.102123 0.0909321 0.101529 0.102123 0.111341 0.101529 0.110893 0 0.0172928 0 0.0169769 0.0172928 0.0340691 0.0169769 0.0334523 0 0.0169769 0 0.0167162 0.0169769 0.0334523 0.0167162 0.0329395 0.0340691 0.0502019 0.0334523 0.0493658 0.0502019 0.0652797 0.0493658 0.0643556 0.0334523 0.0493658 0.0329395 0.0486522 0.0493658 0.0643556 0.0486522 0.0635394 0 0.0167162 0 0.0164995 0.0167162 0.0329395 0.0164995 0.0325098 0 0.0164995 0 0.0163179 0.0164995 0.0325098 0.0163179 0.0321469 0.0329395 0.0486522 0.0325098 0.04804 0.0486522 0.0635394 0.04804 0.0628173 0.0325098 0.04804 0.0321469 0.047512 0.04804 0.0628173 0.047512 0.062177 0.0652797 0.0788971 0.0643556 0.0780212 0.0788971 0.0909321 0.0780212 0.0901892 0.0643556 0.0780212 0.0635394 0.0772173 0.0780212 0.0901892 0.0772173 0.0894808 0.0909321 0.101529 0.0901892 0.100937 0.101529 0.110893 0.100937 0.110434 0.0901892 0.100937 0.0894808 0.100354 0.100937 0.110434 0.100354 0.109969 0.0635394 0.0772173 0.0628173 0.0764813 0.0772173 0.0894808 0.0764813 0.0888095 0.0628173 0.0764813 0.062177 0.0758083 0.0764813 0.0888095 0.0758083 0.088176 0.0894808 0.100354 0.0888095 0.099783 0.100354 0.109969 0.099783 0.109501 0.0888095 0.099783 0.088176 0.0992288 0.099783 0.109501 0.0992288 0.109035 0.112552 0.120383 0.112177 0.120129 0.120383 0.127419 0.120129 0.127245 0.112177 0.120129 0.111771 0.119843 0.120129 0.127245 0.119843 0.127041 0.127419 0.133719 0.127245 0.133595 0.133719 0.139334 0.133595 0.139238 0.127245 0.133595 0.127041 0.133443 0.133595 0.139238 0.133443 0.139117 0.111771 0.119843 0.111341 0.11953 0.119843 0.127041 0.11953 0.126808 0.111341 0.11953 0.110893 0.119193 0.11953 0.126808 0.119193 0.126552 0.127041 0.133443 0.126808 0.133265 0.133443 0.139117 0.133265 0.138973 0.126808 0.133265 0.126552 0.133064 0.133265 0.138973 0.133064 0.138807 0.139334 0.14431 0.139238 0.144227 0.14431 0.148694 0.144227 0.148613 0.139238 0.144227 0.139117 0.144122 0.144227 0.148613 0.144122 0.148512 0.148694 0.152535 0.148613 0.152447 0.152535 0.155878 0.152447 0.155777 0.148613 0.152447 0.148512 0.152342 0.152447 0.155777 0.152342 0.155663 0.139117 0.144122 0.138973 0.143996 0.144122 0.148512 0.143996 0.148393 0.138973 0.143996 0.138807 0.143851 0.143996 0.148393 0.143851 0.148257 0.148512 0.152342 0.148393 0.152222 0.152342 0.155663 0.152222 0.155536 0.148393 0.152222 0.148257 0.152086 0.152222 0.155536 0.152086 0.155395 0.110893 0.119193 0.110434 0.118839 0.119193 0.126552 0.118839 0.126275 0.110434 0.118839 0.109969 0.11847 0.118839 0.126275 0.11847 0.125981 0.126552 0.133064 0.126275 0.132842 0.133064 0.138807 0.132842 0.138622 0.126275 0.132842 0.125981 0.132602 0.132842 0.138622 0.132602 0.138418 0.109969 0.11847 0.109501 0.118091 0.11847 0.125981 0.118091 0.125672 0.109501 0.118091 0.109035 0.117706 0.118091 0.125672 0.117706 0.125352 0.125981 0.132602 0.125672 0.132345 0.132602 0.138418 0.132345 0.138198 0.125672 0.132345 0.125352 0.132075 0.132345 0.138198 0.132075 0.137964 0.138807 0.143851 0.138622 0.143687 0.143851 0.148257 0.143687 0.148104 0.138622 0.143687 0.138418 0.143507 0.143687 0.148104 0.143507 0.147936 0.148257 0.152086 0.148104 0.151936 0.152086 0.155395 0.151936 0.155241 0.148104 0.151936 0.147936 0.151772 0.151936 0.155241 0.151772 0.155075 0.138418 0.143507 0.138198 0.14331 0.143507 0.147936 0.14331 0.147753 0.138198 0.14331 0.137964 0.1431 0.14331 0.147753 0.1431 0.147557 0.147936 0.151772 0.147753 0.151595 0.151772 0.155075 0.151595 0.154898 0.147753 0.151595 0.147557 0.151405 0.151595 0.154898 0.151405 0.154708 0.156155 0.159272 0.156172 0.15925 0.159272 0.161984 0.15925 0.161925 0.156172 0.15925 0.156174 0.159216 0.15925 0.161925 0.159216 0.161857 0.161984 0.164329 0.161925 0.164234 0.164329 0.166342 0.164234 0.166215 0.161925 0.164234 0.161857 0.164133 0.164234 0.166215 0.164133 0.166083 0.156174 0.159216 0.156162 0.159171 0.159216 0.161857 0.159171 0.16178 0.156162 0.159171 0.156135 0.159115 0.159171 0.16178 0.159115 0.161694 0.161857 0.164133 0.16178 0.164026 0.164133 0.166083 0.164026 0.165947 0.16178 0.164026 0.161694 0.163911 0.164026 0.165947 0.163911 0.165806 0.166342 0.16806 0.166215 0.167903 0.16806 0.169516 0.167903 0.169333 0.166215 0.167903 0.166083 0.167744 0.167903 0.169333 0.167744 0.169148 0.169516 0.170743 0.169333 0.170537 0.170743 0.171771 0.170537 0.171544 0.169333 0.170537 0.169148 0.17033 0.170537 0.171544 0.17033 0.171317 0.166083 0.167744 0.165947 0.167581 0.167744 0.169148 0.167581 0.168961 0.165947 0.167581 0.165806 0.167415 0.167581 0.168961 0.167415 0.168772 0.169148 0.17033 0.168961 0.170121 0.17033 0.171317 0.170121 0.171089 0.168961 0.170121 0.168772 0.169911 0.170121 0.171089 0.169911 0.17086 0.156135 0.159115 0.156092 0.159046 0.159115 0.161694 0.159046 0.161598 0.156092 0.159046 0.156035 0.158966 0.159046 0.161598 0.158966 0.161494 0.161694 0.163911 0.161598 0.16379 0.163911 0.165806 0.16379 0.165659 0.161598 0.16379 0.161494 0.163661 0.16379 0.165659 0.163661 0.165507 0.156035 0.158966 0.155964 0.158874 0.158966 0.161494 0.158874 0.16138 0.155964 0.158874 0.155878 0.158769 0.158874 0.16138 0.158769 0.161256 0.161494 0.163661 0.16138 0.163524 0.163661 0.165507 0.163524 0.165348 0.16138 0.163524 0.161256 0.16338 0.163524 0.165348 0.16338 0.165184 0.165806 0.167415 0.165659 0.167244 0.167415 0.168772 0.167244 0.16858 0.165659 0.167244 0.165507 0.16707 0.167244 0.16858 0.16707 0.168384 0.168772 0.169911 0.16858 0.169698 0.169911 0.17086 0.169698 0.17063 0.16858 0.169698 0.168384 0.169484 0.169698 0.17063 0.169484 0.170398 0.165507 0.16707 0.165348 0.16689 0.16707 0.168384 0.16689 0.168185 0.165348 0.16689 0.165184 0.166706 0.16689 0.168185 0.166706 0.167983 0.168384 0.169484 0.168185 0.169267 0.169484 0.170398 0.169267 0.170164 0.168185 0.169267 0.167983 0.169047 0.169267 0.170164 0.169047 0.169929 0.171771 0.172627 0.171544 0.172382 0.172627 0.173336 0.172382 0.173075 0.171544 0.172382 0.171317 0.172137 0.172382 0.173075 0.172137 0.172815 0.173336 0.173919 0.173075 0.173645 0.173919 0.174396 0.173645 0.17411 0.173075 0.173645 0.172815 0.173371 0.173645 0.17411 0.173371 0.173826 0.171317 0.172137 0.171089 0.171892 0.172137 0.172815 0.171892 0.172555 0.171089 0.171892 0.17086 0.171647 0.171892 0.172555 0.171647 0.172295 0.172815 0.173371 0.172555 0.173098 0.173371 0.173826 0.173098 0.173542 0.172555 0.173098 0.172295 0.172826 0.173098 0.173542 0.172826 0.173258 0.174396 0.174784 0.17411 0.174489 0.174784 0.175098 0.174489 0.174795 0.17411 0.174489 0.173826 0.174195 0.174489 0.174795 0.174195 0.174493 0.175098 0.175351 0.174795 0.175041 0.175351 0.175552 0.175041 0.175237 0.174795 0.175041 0.174493 0.174732 0.175041 0.175237 0.174732 0.174923 0.173826 0.174195 0.173542 0.173901 0.174195 0.174493 0.173901 0.174191 0.173542 0.173901 0.173258 0.173609 0.173901 0.174191 0.173609 0.173891 0.174493 0.174732 0.174191 0.174424 0.174732 0.174923 0.174424 0.174609 0.174191 0.174424 0.173891 0.174117 0.174424 0.174609 0.174117 0.174296 0.17086 0.171647 0.17063 0.1714 0.171647 0.172295 0.1714 0.172035 0.17063 0.1714 0.170398 0.171153 0.1714 0.172035 0.171153 0.171774 0.172295 0.172826 0.172035 0.172553 0.172826 0.173258 0.172553 0.172975 0.172035 0.172553 0.171774 0.17228 0.172553 0.172975 0.17228 0.172692 0.170398 0.171153 0.170164 0.170905 0.171153 0.171774 0.170905 0.171512 0.170164 0.170905 0.169929 0.170655 0.170905 0.171512 0.170655 0.171249 0.171774 0.17228 0.171512 0.172007 0.17228 0.172692 0.172007 0.172408 0.171512 0.172007 0.171249 0.171733 0.172007 0.172408 0.171733 0.172124 0.173258 0.173609 0.172975 0.173316 0.173609 0.173891 0.173316 0.17359 0.172975 0.173316 0.172692 0.173024 0.173316 0.17359 0.173024 0.17329 0.173891 0.174117 0.17359 0.17381 0.174117 0.174296 0.17381 0.173984 0.17359 0.17381 0.17329 0.173503 0.17381 0.173984 0.173503 0.173672 0.172692 0.173024 0.172408 0.172731 0.173024 0.17329 0.172731 0.172991 0.172408 0.172731 0.172124 0.172439 0.172731 0.172991 0.172439 0.172691 0.17329 0.173503 0.172991 0.173197 0.173503 0.173672 0.173197 0.17336 0.172991 0.173197 0.172691 0.172891 0.173197 0.17336 0.172891 0.173049 0.155878 0.158769 0.155777 0.158654 0.158769 0.161256 0.158654 0.161122 0.155777 0.158654 0.155663 0.158526 0.158654 0.161122 0.158526 0.160979 0.161256 0.16338 0.161122 0.163228 0.16338 0.165184 0.163228 0.165013 0.161122 0.163228 0.160979 0.163068 0.163228 0.165013 0.163068 0.164835 0.155663 0.158526 0.155536 0.158387 0.158526 0.160979 0.158387 0.160826 0.155536 0.158387 0.155395 0.158237 0.158387 0.160826 0.158237 0.160664 0.160979 0.163068 0.160826 0.1629 0.163068 0.164835 0.1629 0.164651 0.160826 0.1629 0.160664 0.162723 0.1629 0.164651 0.162723 0.16446 0.165184 0.166706 0.165013 0.166517 0.166706 0.167983 0.166517 0.167776 0.165013 0.166517 0.164835 0.166322 0.166517 0.167776 0.166322 0.167565 0.167983 0.169047 0.167776 0.168824 0.169047 0.169929 0.168824 0.16969 0.167776 0.168824 0.167565 0.168597 0.168824 0.16969 0.168597 0.16945 0.164835 0.166322 0.164651 0.166122 0.166322 0.167565 0.166122 0.167349 0.164651 0.166122 0.16446 0.165916 0.166122 0.167349 0.165916 0.167129 0.167565 0.168597 0.167349 0.168367 0.168597 0.16945 0.168367 0.169206 0.167349 0.168367 0.167129 0.168133 0.168367 0.169206 0.168133 0.168959 0.155395 0.158237 0.155241 0.158076 0.158237 0.160664 0.158076 0.160492 0.155241 0.158076 0.155075 0.157904 0.158076 0.160492 0.157904 0.16031 0.160664 0.162723 0.160492 0.162539 0.162723 0.16446 0.162539 0.164262 0.160492 0.162539 0.16031 0.162346 0.162539 0.164262 0.162346 0.164058 0.155075 0.157904 0.154898 0.157721 0.157904 0.16031 0.157721 0.160119 0.154898 0.157721 0.154708 0.157527 0.157721 0.160119 0.157527 0.159919 0.16031 0.162346 0.160119 0.162145 0.162346 0.164058 0.162145 0.163846 0.160119 0.162145 0.159919 0.161937 0.162145 0.163846 0.161937 0.163627 0.16446 0.165916 0.164262 0.165705 0.165916 0.167129 0.165705 0.166904 0.164262 0.165705 0.164058 0.165487 0.165705 0.166904 0.165487 0.166674 0.167129 0.168133 0.166904 0.167895 0.168133 0.168959 0.167895 0.168709 0.166904 0.167895 0.166674 0.167653 0.167895 0.168709 0.167653 0.168456 0.164058 0.165487 0.163846 0.165264 0.165487 0.166674 0.165264 0.166439 0.163846 0.165264 0.163627 0.165035 0.165264 0.166439 0.165035 0.166199 0.166674 0.167653 0.166439 0.167407 0.167653 0.168456 0.167407 0.168199 0.166439 0.167407 0.166199 0.167156 0.167407 0.168199 0.167156 0.167938 0.169929 0.170655 0.16969 0.170403 0.170655 0.171249 0.170403 0.170985 0.16969 0.170403 0.16945 0.170149 0.170403 0.170985 0.170149 0.170719 0.171249 0.171733 0.170985 0.171458 0.171733 0.172124 0.171458 0.17184 0.170985 0.171458 0.170719 0.171182 0.171458 0.17184 0.171182 0.171554 0.16945 0.170149 0.169206 0.169893 0.170149 0.170719 0.169893 0.170452 0.169206 0.169893 0.168959 0.169634 0.169893 0.170452 0.169634 0.170183 0.170719 0.171182 0.170452 0.170904 0.171182 0.171554 0.170904 0.171268 0.170452 0.170904 0.170183 0.170625 0.170904 0.171268 0.170625 0.17098 0.172124 0.172439 0.17184 0.172146 0.172439 0.172691 0.172146 0.17239 0.17184 0.172146 0.171554 0.171852 0.172146 0.17239 0.171852 0.17209 0.172691 0.172891 0.17239 0.172584 0.172891 0.173049 0.172584 0.172737 0.17239 0.172584 0.17209 0.172278 0.172584 0.172737 0.172278 0.172426 0.171554 0.171852 0.171268 0.171558 0.171852 0.17209 0.171558 0.171789 0.171268 0.171558 0.17098 0.171263 0.171558 0.171789 0.171263 0.171487 0.17209 0.172278 0.171789 0.171971 0.172278 0.172426 0.171971 0.172114 0.171789 0.171971 0.171487 0.171663 0.171971 0.172114 0.171663 0.171801 0.168959 0.169634 0.168709 0.169373 0.169634 0.170183 0.169373 0.169911 0.168709 0.169373 0.168456 0.169109 0.169373 0.169911 0.169109 0.169637 0.170183 0.170625 0.169911 0.170344 0.170625 0.17098 0.170344 0.170691 0.169911 0.170344 0.169637 0.170062 0.170344 0.170691 0.170062 0.170401 0.168456 0.169109 0.168199 0.168842 0.169109 0.169637 0.168842 0.169361 0.168199 0.168842 0.167938 0.168572 0.168842 0.169361 0.168572 0.169082 0.169637 0.170062 0.169361 0.169777 0.170062 0.170401 0.169777 0.170109 0.169361 0.169777 0.169082 0.169491 0.169777 0.170109 0.169491 0.169815 0.17098 0.171263 0.170691 0.170967 0.171263 0.171487 0.170967 0.171185 0.170691 0.170967 0.170401 0.17067 0.170967 0.171185 0.17067 0.170881 0.171487 0.171663 0.171185 0.171355 0.171663 0.171801 0.171355 0.171489 0.171185 0.171355 0.170881 0.171047 0.171355 0.171489 0.171047 0.171175 0.170401 0.17067 0.170109 0.170371 0.17067 0.170881 0.170371 0.170577 0.170109 0.170371 0.169815 0.170071 0.170371 0.170577 0.170071 0.170271 0.170881 0.171047 0.170577 0.170737 0.171047 0.171175 0.170737 0.170861 0.170577 0.170737 0.170271 0.170427 0.170737 0.170861 0.170427 0.170547 0 0.0163179 0 0.0161644 0.0163179 0.0321469 0.0161644 0.0318381 0 0.0161644 0 0.0160336 0.0161644 0.0318381 0.0160336 0.0315732 0.0321469 0.047512 0.0318381 0.047054 0.047512 0.062177 0.047054 0.0616077 0.0318381 0.047054 0.0315732 0.0466544 0.047054 0.0616077 0.0466544 0.0611002 0 0.0160336 0 0.0159209 0.0160336 0.0315732 0.0159209 0.031344 0 0.0159209 0 0.0158231 0.0159209 0.031344 0.0158231 0.031144 0.0315732 0.0466544 0.031344 0.0463038 0.0466544 0.0611002 0.0463038 0.0606462 0.031344 0.0463038 0.031144 0.0459943 0.0463038 0.0606462 0.0459943 0.0602386 0.062177 0.0758083 0.0616077 0.0751933 0.0758083 0.088176 0.0751933 0.0875803 0.0616077 0.0751933 0.0611002 0.0746311 0.0751933 0.0875803 0.0746311 0.0870215 0.088176 0.0992288 0.0875803 0.0986933 0.0992288 0.109035 0.0986933 0.108574 0.0875803 0.0986933 0.0870215 0.0981781 0.0986933 0.108574 0.0981781 0.10812 0.0611002 0.0746311 0.0606462 0.0741169 0.0746311 0.0870215 0.0741169 0.086498 0.0606462 0.0741169 0.0602386 0.073646 0.0741169 0.086498 0.073646 0.0860081 0.0870215 0.0981781 0.086498 0.0976842 0.0981781 0.10812 0.0976842 0.107676 0.086498 0.0976842 0.0860081 0.0972118 0.0976842 0.107676 0.0972118 0.107242 0 0.0158231 0 0.0157373 0.0158231 0.031144 0.0157373 0.0309681 0 0.0157373 0 0.0156613 0.0157373 0.0309681 0.0156613 0.030812 0.031144 0.0459943 0.0309681 0.0457194 0.0459943 0.0602386 0.0457194 0.0598714 0.0309681 0.0457194 0.030812 0.0454737 0.0457194 0.0598714 0.0454737 0.0595392 0 0.0156613 0 0.0155934 0.0156613 0.030812 0.0155934 0.0306724 0 0.0155934 0 0.0155322 0.0155934 0.0306724 0