# vtk DataFile Version 3.0
#This file was generated by the deal.II library on 2022/1/6 at 22:41:50
ASCII
DATASET UNSTRUCTURED_GRID

POINTS 16384 double
0 0 0
0.1875 0 0
0 0.046875 0
0.1875 0.046875 0
0.1875 0 0
0.375 0 0
0.1875 0.046875 0
0.375 0.046875 0
0 0.046875 0
0.1875 0.046875 0
0 0.09375 0
0.1875 0.09375 0
0.1875 0.046875 0
0.375 0.046875 0
0.1875 0.09375 0
0.375 0.09375 0
0.375 0 0
0.5625 0 0
0.375 0.046875 0
0.5625 0.046875 0
0.5625 0 0
0.75 0 0
0.5625 0.046875 0
0.75 0.046875 0
0.375 0.046875 0
0.5625 0.046875 0
0.375 0.09375 0
0.5625 0.09375 0
0.5625 0.046875 0
0.75 0.046875 0
0.5625 0.09375 0
0.75 0.09375 0
0 0.09375 0
0.1875 0.09375 0
0 0.140625 0
0.1875 0.140625 0
0.1875 0.09375 0
0.375 0.09375 0
0.1875 0.140625 0
0.375 0.140625 0
0 0.140625 0
0.1875 0.140625 0
0 0.1875 0
0.1875 0.1875 0
0.1875 0.140625 0
0.375 0.140625 0
0.1875 0.1875 0
0.375 0.1875 0
0.375 0.09375 0
0.5625 0.09375 0
0.375 0.140625 0
0.5625 0.140625 0
0.5625 0.09375 0
0.75 0.09375 0
0.5625 0.140625 0
0.75 0.140625 0
0.375 0.140625 0
0.5625 0.140625 0
0.375 0.1875 0
0.5625 0.1875 0
0.5625 0.140625 0
0.75 0.140625 0
0.5625 0.1875 0
0.75 0.1875 0
0.75 0 0
0.9375 0 0
0.75 0.046875 0
0.9375 0.046875 0
0.9375 0 0
1.125 0 0
0.9375 0.046875 0
1.125 0.046875 0
0.75 0.046875 0
0.9375 0.046875 0
0.75 0.09375 0
0.9375 0.09375 0
0.9375 0.046875 0
1.125 0.046875 0
0.9375 0.09375 0
1.125 0.09375 0
1.125 0 0
1.3125 0 0
1.125 0.046875 0
1.3125 0.046875 0
1.3125 0 0
1.5 0 0
1.3125 0.046875 0
1.5 0.046875 0
1.125 0.046875 0
1.3125 0.046875 0
1.125 0.09375 0
1.3125 0.09375 0
1.3125 0.046875 0
1.5 0.046875 0
1.3125 0.09375 0
1.5 0.09375 0
0.75 0.09375 0
0.9375 0.09375 0
0.75 0.140625 0
0.9375 0.140625 0
0.9375 0.09375 0
1.125 0.09375 0
0.9375 0.140625 0
1.125 0.140625 0
0.75 0.140625 0
0.9375 0.140625 0
0.75 0.1875 0
0.9375 0.1875 0
0.9375 0.140625 0
1.125 0.140625 0
0.9375 0.1875 0
1.125 0.1875 0
1.125 0.09375 0
1.3125 0.09375 0
1.125 0.140625 0
1.3125 0.140625 0
1.3125 0.09375 0
1.5 0.09375 0
1.3125 0.140625 0
1.5 0.140625 0
1.125 0.140625 0
1.3125 0.140625 0
1.125 0.1875 0
1.3125 0.1875 0
1.3125 0.140625 0
1.5 0.140625 0
1.3125 0.1875 0
1.5 0.1875 0
0 0.1875 0
0.1875 0.1875 0
0 0.234375 0
0.1875 0.234375 0
0.1875 0.1875 0
0.375 0.1875 0
0.1875 0.234375 0
0.375 0.234375 0
0 0.234375 0
0.1875 0.234375 0
0 0.28125 0
0.1875 0.28125 0
0.1875 0.234375 0
0.375 0.234375 0
0.1875 0.28125 0
0.375 0.28125 0
0.375 0.1875 0
0.5625 0.1875 0
0.375 0.234375 0
0.5625 0.234375 0
0.5625 0.1875 0
0.75 0.1875 0
0.5625 0.234375 0
0.75 0.234375 0
0.375 0.234375 0
0.5625 0.234375 0
0.375 0.28125 0
0.5625 0.28125 0
0.5625 0.234375 0
0.75 0.234375 0
0.5625 0.28125 0
0.75 0.28125 0
0 0.28125 0
0.1875 0.28125 0
0 0.328125 0
0.1875 0.328125 0
0.1875 0.28125 0
0.375 0.28125 0
0.1875 0.328125 0
0.375 0.328125 0
0 0.328125 0
0.1875 0.328125 0
0 0.375 0
0.1875 0.375 0
0.1875 0.328125 0
0.375 0.328125 0
0.1875 0.375 0
0.375 0.375 0
0.375 0.28125 0
0.5625 0.28125 0
0.375 0.328125 0
0.5625 0.328125 0
0.5625 0.28125 0
0.75 0.28125 0
0.5625 0.328125 0
0.75 0.328125 0
0.375 0.328125 0
0.5625 0.328125 0
0.375 0.375 0
0.5625 0.375 0
0.5625 0.328125 0
0.75 0.328125 0
0.5625 0.375 0
0.75 0.375 0
0.75 0.1875 0
0.9375 0.1875 0
0.75 0.234375 0
0.9375 0.234375 0
0.9375 0.1875 0
1.125 0.1875 0
0.9375 0.234375 0
1.125 0.234375 0
0.75 0.234375 0
0.9375 0.234375 0
0.75 0.28125 0
0.9375 0.28125 0
0.9375 0.234375 0
1.125 0.234375 0
0.9375 0.28125 0
1.125 0.28125 0
1.125 0.1875 0
1.3125 0.1875 0
1.125 0.234375 0
1.3125 0.234375 0
1.3125 0.1875 0
1.5 0.1875 0
1.3125 0.234375 0
1.5 0.234375 0
1.125 0.234375 0
1.3125 0.234375 0
1.125 0.28125 0
1.3125 0.28125 0
1.3125 0.234375 0
1.5 0.234375 0
1.3125 0.28125 0
1.5 0.28125 0
0.75 0.28125 0
0.9375 0.28125 0
0.75 0.328125 0
0.9375 0.328125 0
0.9375 0.28125 0
1.125 0.28125 0
0.9375 0.328125 0
1.125 0.328125 0
0.75 0.328125 0
0.9375 0.328125 0
0.75 0.375 0
0.9375 0.375 0
0.9375 0.328125 0
1.125 0.328125 0
0.9375 0.375 0
1.125 0.375 0
1.125 0.28125 0
1.3125 0.28125 0
1.125 0.328125 0
1.3125 0.328125 0
1.3125 0.28125 0
1.5 0.28125 0
1.3125 0.328125 0
1.5 0.328125 0
1.125 0.328125 0
1.3125 0.328125 0
1.125 0.375 0
1.3125 0.375 0
1.3125 0.328125 0
1.5 0.328125 0
1.3125 0.375 0
1.5 0.375 0
1.5 0 0
1.6875 0 0
1.5 0.046875 0
1.6875 0.046875 0
1.6875 0 0
1.875 0 0
1.6875 0.046875 0
1.875 0.046875 0
1.5 0.046875 0
1.6875 0.046875 0
1.5 0.09375 0
1.6875 0.09375 0
1.6875 0.046875 0
1.875 0.046875 0
1.6875 0.09375 0
1.875 0.09375 0
1.875 0 0
2.0625 0 0
1.875 0.046875 0
2.0625 0.046875 0
2.0625 0 0
2.25 0 0
2.0625 0.046875 0
2.25 0.046875 0
1.875 0.046875 0
2.0625 0.046875 0
1.875 0.09375 0
2.0625 0.09375 0
2.0625 0.046875 0
2.25 0.046875 0
2.0625 0.09375 0
2.25 0.09375 0
1.5 0.09375 0
1.6875 0.09375 0
1.5 0.140625 0
1.6875 0.140625 0
1.6875 0.09375 0
1.875 0.09375 0
1.6875 0.140625 0
1.875 0.140625 0
1.5 0.140625 0
1.6875 0.140625 0
1.5 0.1875 0
1.6875 0.1875 0
1.6875 0.140625 0
1.875 0.140625 0
1.6875 0.1875 0
1.875 0.1875 0
1.875 0.09375 0
2.0625 0.09375 0
1.875 0.140625 0
2.0625 0.140625 0
2.0625 0.09375 0
2.25 0.09375 0
2.0625 0.140625 0
2.25 0.140625 0
1.875 0.140625 0
2.0625 0.140625 0
1.875 0.1875 0
2.0625 0.1875 0
2.0625 0.140625 0
2.25 0.140625 0
2.0625 0.1875 0
2.25 0.1875 0
2.25 0 0
2.4375 0 0
2.25 0.046875 0
2.4375 0.046875 0
2.4375 0 0
2.625 0 0
2.4375 0.046875 0
2.625 0.046875 0
2.25 0.046875 0
2.4375 0.046875 0
2.25 0.09375 0
2.4375 0.09375 0
2.4375 0.046875 0
2.625 0.046875 0
2.4375 0.09375 0
2.625 0.09375 0
2.625 0 0
2.8125 0 0
2.625 0.046875 0
2.8125 0.046875 0
2.8125 0 0
3 0 0
2.8125 0.046875 0
3 0.046875 0
2.625 0.046875 0
2.8125 0.046875 0
2.625 0.09375 0
2.8125 0.09375 0
2.8125 0.046875 0
3 0.046875 0
2.8125 0.09375 0
3 0.09375 0
2.25 0.09375 0
2.4375 0.09375 0
2.25 0.140625 0
2.4375 0.140625 0
2.4375 0.09375 0
2.625 0.09375 0
2.4375 0.140625 0
2.625 0.140625 0
2.25 0.140625 0
2.4375 0.140625 0
2.25 0.1875 0
2.4375 0.1875 0
2.4375 0.140625 0
2.625 0.140625 0
2.4375 0.1875 0
2.625 0.1875 0
2.625 0.09375 0
2.8125 0.09375 0
2.625 0.140625 0
2.8125 0.140625 0
2.8125 0.09375 0
3 0.09375 0
2.8125 0.140625 0
3 0.140625 0
2.625 0.140625 0
2.8125 0.140625 0
2.625 0.1875 0
2.8125 0.1875 0
2.8125 0.140625 0
3 0.140625 0
2.8125 0.1875 0
3 0.1875 0
1.5 0.1875 0
1.6875 0.1875 0
1.5 0.234375 0
1.6875 0.234375 0
1.6875 0.1875 0
1.875 0.1875 0
1.6875 0.234375 0
1.875 0.234375 0
1.5 0.234375 0
1.6875 0.234375 0
1.5 0.28125 0
1.6875 0.28125 0
1.6875 0.234375 0
1.875 0.234375 0
1.6875 0.28125 0
1.875 0.28125 0
1.875 0.1875 0
2.0625 0.1875 0
1.875 0.234375 0
2.0625 0.234375 0
2.0625 0.1875 0
2.25 0.1875 0
2.0625 0.234375 0
2.25 0.234375 0
1.875 0.234375 0
2.0625 0.234375 0
1.875 0.28125 0
2.0625 0.28125 0
2.0625 0.234375 0
2.25 0.234375 0
2.0625 0.28125 0
2.25 0.28125 0
1.5 0.28125 0
1.6875 0.28125 0
1.5 0.328125 0
1.6875 0.328125 0
1.6875 0.28125 0
1.875 0.28125 0
1.6875 0.328125 0
1.875 0.328125 0
1.5 0.328125 0
1.6875 0.328125 0
1.5 0.375 0
1.6875 0.375 0
1.6875 0.328125 0
1.875 0.328125 0
1.6875 0.375 0
1.875 0.375 0
1.875 0.28125 0
2.0625 0.28125 0
1.875 0.328125 0
2.0625 0.328125 0
2.0625 0.28125 0
2.25 0.28125 0
2.0625 0.328125 0
2.25 0.328125 0
1.875 0.328125 0
2.0625 0.328125 0
1.875 0.375 0
2.0625 0.375 0
2.0625 0.328125 0
2.25 0.328125 0
2.0625 0.375 0
2.25 0.375 0
2.25 0.1875 0
2.4375 0.1875 0
2.25 0.234375 0
2.4375 0.234375 0
2.4375 0.1875 0
2.625 0.1875 0
2.4375 0.234375 0
2.625 0.234375 0
2.25 0.234375 0
2.4375 0.234375 0
2.25 0.28125 0
2.4375 0.28125 0
2.4375 0.234375 0
2.625 0.234375 0
2.4375 0.28125 0
2.625 0.28125 0
2.625 0.1875 0
2.8125 0.1875 0
2.625 0.234375 0
2.8125 0.234375 0
2.8125 0.1875 0
3 0.1875 0
2.8125 0.234375 0
3 0.234375 0
2.625 0.234375 0
2.8125 0.234375 0
2.625 0.28125 0
2.8125 0.28125 0
2.8125 0.234375 0
3 0.234375 0
2.8125 0.28125 0
3 0.28125 0
2.25 0.28125 0
2.4375 0.28125 0
2.25 0.328125 0
2.4375 0.328125 0
2.4375 0.28125 0
2.625 0.28125 0
2.4375 0.328125 0
2.625 0.328125 0
2.25 0.328125 0
2.4375 0.328125 0
2.25 0.375 0
2.4375 0.375 0
2.4375 0.328125 0
2.625 0.328125 0
2.4375 0.375 0
2.625 0.375 0
2.625 0.28125 0
2.8125 0.28125 0
2.625 0.328125 0
2.8125 0.328125 0
2.8125 0.28125 0
3 0.28125 0
2.8125 0.328125 0
3 0.328125 0
2.625 0.328125 0
2.8125 0.328125 0
2.625 0.375 0
2.8125 0.375 0
2.8125 0.328125 0
3 0.328125 0
2.8125 0.375 0
3 0.375 0
0 0.375 0
0.1875 0.375 0
0 0.421875 0
0.1875 0.421875 0
0.1875 0.375 0
0.375 0.375 0
0.1875 0.421875 0
0.375 0.421875 0
0 0.421875 0
0.1875 0.421875 0
0 0.46875 0
0.1875 0.46875 0
0.1875 0.421875 0
0.375 0.421875 0
0.1875 0.46875 0
0.375 0.46875 0
0.375 0.375 0
0.5625 0.375 0
0.375 0.421875 0
0.5625 0.421875 0
0.5625 0.375 0
0.75 0.375 0
0.5625 0.421875 0
0.75 0.421875 0
0.375 0.421875 0
0.5625 0.421875 0
0.375 0.46875 0
0.5625 0.46875 0
0.5625 0.421875 0
0.75 0.421875 0
0.5625 0.46875 0
0.75 0.46875 0
0 0.46875 0
0.1875 0.46875 0
0 0.515625 0
0.1875 0.515625 0
0.1875 0.46875 0
0.375 0.46875 0
0.1875 0.515625 0
0.375 0.515625 0
0 0.515625 0
0.1875 0.515625 0
0 0.5625 0
0.1875 0.5625 0
0.1875 0.515625 0
0.375 0.515625 0
0.1875 0.5625 0
0.375 0.5625 0
0.375 0.46875 0
0.5625 0.46875 0
0.375 0.515625 0
0.5625 0.515625 0
0.5625 0.46875 0
0.75 0.46875 0
0.5625 0.515625 0
0.75 0.515625 0
0.375 0.515625 0
0.5625 0.515625 0
0.375 0.5625 0
0.5625 0.5625 0
0.5625 0.515625 0
0.75 0.515625 0
0.5625 0.5625 0
0.75 0.5625 0
0.75 0.375 0
0.9375 0.375 0
0.75 0.421875 0
0.9375 0.421875 0
0.9375 0.375 0
1.125 0.375 0
0.9375 0.421875 0
1.125 0.421875 0
0.75 0.421875 0
0.9375 0.421875 0
0.75 0.46875 0
0.9375 0.46875 0
0.9375 0.421875 0
1.125 0.421875 0
0.9375 0.46875 0
1.125 0.46875 0
1.125 0.375 0
1.3125 0.375 0
1.125 0.421875 0
1.3125 0.421875 0
1.3125 0.375 0
1.5 0.375 0
1.3125 0.421875 0
1.5 0.421875 0
1.125 0.421875 0
1.3125 0.421875 0
1.125 0.46875 0
1.3125 0.46875 0
1.3125 0.421875 0
1.5 0.421875 0
1.3125 0.46875 0
1.5 0.46875 0
0.75 0.46875 0
0.9375 0.46875 0
0.75 0.515625 0
0.9375 0.515625 0
0.9375 0.46875 0
1.125 0.46875 0
0.9375 0.515625 0
1.125 0.515625 0
0.75 0.515625 0
0.9375 0.515625 0
[...]
POINT_DATA 16384
SCALARS x_displacement double 1
LOOKUP_TABLE default
0 0.0316912 0 0.0285847 0.0316912 0.0554685 0.0285847 0.0542277 0 0.0285847 0 0.0264371 0.0285847 0.0542277 0.0264371 0.0518332 0.0554685 0.0692525 0.0542277 0.0683601 0.0692525 0.0728705 0.0683601 0.0724164 0.0542277 0.0683601 0.0518332 0.0667268 0.0683601 0.0724164 0.0667268 0.0714833 0 0.0264371 0 0.0246392 0.0264371 0.0518332 0.0246392 0.0485789 0 0.0246392 0 0.0231092 0.0246392 0.0485789 0.0231092 0.0452104 0.0518332 0.0667268 0.0485789 0.06426 0.0667268 0.0714833 0.06426 0.0701108 0.0485789 0.06426 0.0452104 0.0608147 0.06426 0.0701108 0.0608147 0.0684338 0.0728705 0.0757285 0.0724164 0.0756647 0.0757285 0.0788763 0.0756647 0.0790725 0.0724164 0.0756647 0.0714833 0.0753377 0.0756647 0.0790725 0.0753377 0.079072 0.0788763 0.0819453 0.0790725 0.0822024 0.0819453 0.0846637 0.0822024 0.0849075 0.0790725 0.0822024 0.079072 0.082327 0.0822024 0.0849075 0.082327 0.0850574 0.0714833 0.0753377 0.0701108 0.0747896 0.0753377 0.079072 0.0747896 0.0789036 0.0701108 0.0747896 0.0684338 0.0740685 0.0747896 0.0789036 0.0740685 0.0785893 0.079072 0.082327 0.0789036 0.0823283 0.082327 0.0850574 0.0823283 0.0851196 0.0789036 0.0823283 0.0785893 0.0822203 0.0823283 0.0851196 0.0822203 0.0851002 0 0.0231092 0 0.021802 0.0231092 0.0452104 0.021802 0.0420284 0 0.021802 0 0.0206422 0.021802 0.0420284 0.0206422 0.0395087 0.0452104 0.0608147 0.0420284 0.0572749 0.0608147 0.0684338 0.0572749 0.0666904 0.0420284 0.0572749 0.0395087 0.0544493 0.0572749 0.0666904 0.0544493 0.0649193 0 0.0206422 0 0.0196608 0.0206422 0.0395087 0.0196608 0.0375126 0 0.0196608 0 0.018851 0.0196608 0.0375126 0.018851 0.0359236 0.0395087 0.0544493 0.0375126 0.052198 0.0544493 0.0649193 0.052198 0.0632498 0.0375126 0.052198 0.0359236 0.0503626 0.052198 0.0632498 0.0503626 0.0617333 0.0684338 0.0740685 0.0666904 0.0731987 0.0740685 0.0785893 0.0731987 0.0781577 0.0666904 0.0731987 0.0649193 0.072239 0.0731987 0.0781577 0.072239 0.0776308 0.0785893 0.0822203 0.0781577 0.082016 0.0822203 0.0851002 0.082016 0.0850067 0.0781577 0.082016 0.0776308 0.0817294 0.082016 0.0850067 0.0817294 0.0848467 0.0649193 0.072239 0.0632498 0.0712241 0.072239 0.0776308 0.0712241 0.0770333 0.0632498 0.0712241 0.0617333 0.070197 0.0712241 0.0770333 0.070197 0.0763854 0.0776308 0.0817294 0.0770333 0.0813739 0.0817294 0.0848467 0.0813739 0.0846283 0.0770333 0.0813739 0.0763854 0.0809631 0.0813739 0.0846283 0.0809631 0.0843595 0.0846637 0.0869663 0.0849075 0.0871596 0.0869663 0.0888672 0.0871596 0.0889921 0.0849075 0.0871596 0.0850574 0.0872871 0.0871596 0.0889921 0.0872871 0.089072 0.0888672 0.0904102 0.0889921 0.0904612 0.0904102 0.0916488 0.0904612 0.0916277 0.0889921 0.0904612 0.089072 0.0904828 0.0904612 0.0916277 0.0904828 0.0915889 0.0850574 0.0872871 0.0851196 0.0873514 0.0872871 0.089072 0.0873514 0.0891079 0.0851196 0.0873514 0.0851002 0.0873562 0.0873514 0.0891079 0.0873562 0.0891013 0.089072 0.0904828 0.0891079 0.0904749 0.0904828 0.0915889 0.0904749 0.0915317 0.0891079 0.0904749 0.0891013 0.090438 0.0904749 0.0915317 0.090438 0.0914556 0.0916488 0.0926357 0.0916277 0.092549 0.0926357 0.0934184 0.092549 0.0932745 0.0916277 0.092549 0.0915889 0.0924529 0.092549 0.0932745 0.0924529 0.0931272 0.0934184 0.0940371 0.0932745 0.0938454 0.0940371 0.0945249 0.0938454 0.0942946 0.0932745 0.0938454 0.0931272 0.0936542 0.0938454 0.0942946 0.0936542 0.094067 0.0915889 0.0924529 0.0915317 0.0923465 0.0924529 0.0931272 0.0923465 0.0929752 0.0915317 0.0923465 0.0914556 0.0922288 0.0923465 0.0929752 0.0922288 0.0928176 0.0931272 0.0936542 0.0929752 0.0934621 0.0936542 0.094067 0.0934621 0.093841 0.0929752 0.0934621 0.0928176 0.0932682 0.0934621 0.093841 0.0932682 0.0936156 0.0851002 0.0873562 0.0850067 0.0873055 0.0873562 0.0891013 0.0873055 0.0890543 0.0850067 0.0873055 0.0848467 0.0872035 0.0873055 0.0890543 0.0872035 0.088969 0.0891013 0.090438 0.0890543 0.0903726 0.090438 0.0914556 0.0903726 0.0913604 0.0890543 0.0903726 0.088969 0.0902797 0.0903726 0.0913604 0.0902797 0.0912465 0.0848467 0.0872035 0.0846283 0.0870548 0.0872035 0.088969 0.0870548 0.088848 0.0846283 0.0870548 0.0843595 0.0868642 0.0870548 0.088848 0.0868642 0.088694 0.088969 0.0902797 0.088848 0.0901605 0.0902797 0.0912465 0.0901605 0.0911139 0.088848 0.0901605 0.088694 0.0900164 0.0901605 0.0911139 0.0900164 0.0909634 0.0914556 0.0922288 0.0913604 0.0920993 0.0922288 0.0928176 0.0920993 0.0926534 0.0913604 0.0920993 0.0912465 0.0919577 0.0920993 0.0926534 0.0919577 0.092482 0.0928176 0.0932682 0.0926534 0.0930715 0.0932682 0.0936156 0.0930715 0.09339 0.0926534 0.0930715 0.092482 0.0928713 0.0930715 0.09339 0.0928713 0.0931633 0.0912465 0.0919577 0.0911139 0.0918036 0.0919577 0.092482 0.0918036 0.092303 0.0911139 0.0918036 0.0909634 0.0916372 0.0918036 0.092303 0.0916372 0.092116 0.092482 0.0928713 0.092303 0.0926669 0.0928713 0.0931633 0.0926669 0.0929349 0.092303 0.0926669 0.092116 0.0924577 0.0926669 0.0929349 0.0924577 0.0927042 0 0.018851 0 0.0181914 0.018851 0.0359236 0.0181914 0.03465 0 0.0181914 0 0.0176566 0.0181914 0.03465 0.0176566 0.033622 0.0359236 0.0503626 0.03465 0.0488462 0.0503626 0.0617333 0.0488462 0.0603764 0.03465 0.0488462 0.033622 0.047582 0.0488462 0.0603764 0.047582 0.0591706 0 0.0176566 0 0.0172227 0.0176566 0.033622 0.0172227 0.0327861 0 0.0172227 0 0.0168695 0.0172227 0.0327861 0.0168695 0.0321015 0.033622 0.047582 0.0327861 0.0465203 0.047582 0.0591706 0.0465203 0.0581023 0.0327861 0.0465203 0.0321015 0.0456231 0.0465203 0.0581023 0.0456231 0.0571567 0.0617333 0.070197 0.0603764 0.0691914 0.070197 0.0763854 0.0691914 0.0757062 0.0603764 0.0691914 0.0591706 0.0682287 0.0691914 0.0757062 0.0682287 0.0750133 0.0763854 0.0809631 0.0757062 0.0805093 0.0809631 0.0843595 0.0805093 0.084048 0.0757062 0.0805093 0.0750133 0.0800237 0.0805093 0.084048 0.0800237 0.0837016 0.0591706 0.0682287 0.0581023 0.0673208 0.0682287 0.0750133 0.0673208 0.0743212 0.0581023 0.0673208 0.0571567 0.0664729 0.0673208 0.0743212 0.0664729 0.0736409 0.0750133 0.0800237 0.0743212 0.0795166 0.0800237 0.0837016 0.0795166 0.0833272 0.0743212 0.0795166 0.0736409 0.078997 0.0795166 0.0833272 0.078997 0.0829313 0 0.0168695 0 0.0165803 0.0168695 0.0321015 0.0165803 0.0315365 0 0.0165803 0 0.0163418 0.0165803 0.0315365 0.0163418 0.0310665 0.0321015 0.0456231 0.0315365 0.0448604 0.0456231 0.0571567 0.0448604 0.0563194 0.0315365 0.0448604 0.0310665 0.0442084 0.0448604 0.0563194 0.0442084 0.0555772 0 0.0163418 0 0.0161435 0.0163418 0.0310665 0.0161435 0.0306723 0 0.0161435 0 0.0159771 0.0161435 0.0306723 0.0159771 0.0303389 0.0310665 0.0442084 0.0306723 0.0436477 0.0442084 0.0555772 0.0436477 0.054918 0.0306723 0.0436477 0.0303389 0.0431627 0.0436477 0.054918 0.0431627 0.054331 0.0571567 0.0664729 0.0563194 0.0656865 0.0664729 0.0736409 0.0656865 0.0729802 0.0563194 0.0656865 0.0555772 0.0649602 0.0656865 0.0729802 0.0649602 0.0723445 0.0736409 0.078997 0.0729802 0.0784726 0.078997 0.0829313 0.0784726 0.0825198 0.0729802 0.0784726 0.0723445 0.0779498 0.0784726 0.0825198 0.0779498 0.082098 0.0555772 0.0649602 0.054918 0.0642914 0.0649602 0.0723445 0.0642914 0.0717371 0.054918 0.0642914 0.054331 0.0636764 0.0642914 0.0717371 0.0636764 0.0711599 0.0723445 0.0779498 0.0717371 0.0774337 0.0779498 0.082098 0.0774337 0.0816705 0.0717371 0.0774337 0.0711599 0.0769281 0.0774337 0.0816705 0.0769281 0.0812411 0.0843595 0.0868642 0.084048 0.0866366 0.0868642 0.088694 0.0866366 0.0885098 0.084048 0.0866366 0.0837016 0.0863767 0.0866366 0.0885098 0.0863767 0.0882984 0.088694 0.0900164 0.0885098 0.089849 0.0900164 0.0909634 0.089849 0.0907955 0.0885098 0.089849 0.0882984 0.0896598 0.089849 0.0907955 0.0896598 0.090611 0.0837016 0.0863767 0.0833272 0.0860892 0.0863767 0.0882984 0.0860892 0.0880628 0.0833272 0.0860892 0.0829313 0.0857786 0.0860892 0.0880628 0.0857786 0.0878058 0.0882984 0.0896598 0.0880628 0.0894507 0.0896598 0.090611 0.0894507 0.090411 0.0880628 0.0894507 0.0878058 0.0892235 0.0894507 0.090411 0.0892235 0.0901963 0.0909634 0.0916372 0.0907955 0.0914584 0.0916372 0.092116 0.0914584 0.0919207 0.0907955 0.0914584 0.090611 0.0912676 0.0914584 0.0919207 0.0912676 0.091717 0.092116 0.0924577 0.0919207 0.0922434 0.0924577 0.0927042 0.0922434 0.0924706 0.0919207 0.0922434 0.091717 0.0920236 0.0922434 0.0924706 0.0920236 0.0922337 0.090611 0.0912676 0.090411 0.0910651 0.0912676 0.091717 0.0910651 0.0915049 0.090411 0.0910651 0.0901963 0.0908513 0.0910651 0.0915049 0.0908513 0.0912845 0.091717 0.0920236 0.0915049 0.0917981 0.0920236 0.0922337 0.0917981 0.0919931 0.0915049 0.0917981 0.0912845 0.0915667 0.0917981 0.0919931 0.0915667 0.0917486 0.0829313 0.0857786 0.0825198 0.085449 0.0857786 0.0878058 0.085449 0.0875303 0.0825198 0.085449 0.082098 0.0851044 0.085449 0.0875303 0.0851044 0.087239 0.0878058 0.0892235 0.0875303 0.0889798 0.0892235 0.0901963 0.0889798 0.089968 0.0875303 0.0889798 0.087239 0.0887216 0.0889798 0.089968 0.0887216 0.0897272 0.082098 0.0851044 0.0816705 0.0847484 0.0851044 0.087239 0.0847484 0.0869345 0.0816705 0.0847484 0.0812411 0.0843841 0.0847484 0.0869345 0.0843841 0.0866191 0.087239 0.0887216 0.0869345 0.0884505 0.0887216 0.0897272 0.0884505 0.089475 0.0869345 0.0884505 0.0866191 0.0881683 0.0884505 0.089475 0.0881683 0.0892125 0.0901963 0.0908513 0.089968 0.0906268 0.0908513 0.0912845 0.0906268 0.091056 0.089968 0.0906268 0.0897272 0.090392 0.0906268 0.091056 0.090392 0.0908194 0.0912845 0.0915667 0.091056 0.0913294 0.0915667 0.0917486 0.0913294 0.0914999 0.091056 0.0913294 0.0908194 0.091086 0.0913294 0.0914999 0.091086 0.0912469 0.0897272 0.090392 0.089475 0.0901477 0.090392 0.0908194 0.0901477 0.0905751 0.089475 0.0901477 0.0892125 0.0898943 0.0901477 0.0905751 0.0898943 0.0903234 0.0908194 0.091086 0.0905751 0.0908366 0.091086 0.0912469 0.0908366 0.0909894 0.0905751 0.0908366 0.0903234 0.0905813 0.0908366 0.0909894 0.0905813 0.0907272 0.0945249 0.0949086 0.0942946 0.0946478 0.0949086 0.0952093 0.0946478 0.0949252 0.0942946 0.0946478 0.094067 0.094391 0.0946478 0.0949252 0.094391 0.0946455 0.0952093 0.0954438 0.0949252 0.0951423 0.0954438 0.0956255 0.0951423 0.0953114 0.0949252 0.0951423 0.0946455 0.0948452 0.0951423 0.0953114 0.0948452 0.0950015 0.094067 0.094391 0.093841 0.0941372 0.094391 0.0946455 0.0941372 0.0943695 0.093841 0.0941372 0.0936156 0.0938855 0.0941372 0.0943695 0.0938855 0.0940964 0.0946455 0.0948452 0.0943695 0.094552 0.0948452 0.0950015 0.094552 0.094695 0.0943695 0.094552 0.0940964 0.0942618 0.094552 0.094695 0.0942618 0.0943917 0.0956255 0.0957653 0.0953114 0.0954423 0.0957653 0.0958716 0.0954423 0.0955425 0.0953114 0.0954423 0.0950015 0.0951229 0.0954423 0.0955425 0.0951229 0.0952165 0.0958716 0.0959515 0.0955425 0.0956184 0.0959515 0.0960106 0.0956184 0.0956751 0.0955425 0.0956184 0.0952165 0.0952879 0.0956184 0.0956751 0.0952879 0.0953416 0.0950015 0.0951229 0.094695 0.0948067 0.0951229 0.0952165 0.0948067 0.0948933 0.094695 0.0948067 0.0943917 0.0944934 0.0948067 0.0948933 0.0944934 0.0945726 0.0952165 0.0952879 0.0948933 0.0949597 0.0952879 0.0953416 0.0949597 0.09501 0.0948933 0.0949597 0.0945726 0.0946337 0.0949597 0.09501 0.0946337 0.0946802 0.0936156 0.0938855 0.09339 0.0936351 0.0938855 0.0940964 0.0936351 0.0938254 0.09339 0.0936351 0.0931633 0.0933852 0.0936351 0.0938254 0.0933852 0.093556 0.0940964 0.0942618 0.0938254 0.0939742 0.0942618 0.0943917 0.0939742 0.094091 0.0938254 0.0939742 0.093556 0.0936887 0.0939742 0.094091 0.0936887 0.0937925 0.0931633 0.0933852 0.0929349 0.0931353 0.0933852 0.093556 0.0931353 0.0932874 0.0929349 0.0931353 0.0927042 0.0928847 0.0931353 0.0932874 0.0928847 0.0930192 0.093556 0.0936887 0.0932874 0.0934045 0.0936887 0.0937925 0.0934045 0.0934956 0.0932874 0.0934045 0.0930192 0.0931214 0.0934045 0.0934956 0.0931214 0.0932001 0.0943917 0.0944934 0.094091 0.0941826 0.0944934 0.0945726 0.0941826 0.0942541 0.094091 0.0941826 0.0937925 0.0938739 0.0941826 0.0942541 0.0938739 0.0939375 0.0945726 0.0946337 0.0942541 0.0943095 0.0946337 0.0946802 0.0943095 0.094352 0.0942541 0.0943095 0.0939375 0.093987 0.0943095 0.094352 0.093987 0.0940252 0.0937925 0.0938739 0.0934956 0.0935669 0.0938739 0.0939375 0.0935669 0.0936226 0.0934956 0.0935669 0.0932001 0.0932612 0.0935669 0.0936226 0.0932612 0.093309 0.0939375 0.093987 0.0936226 0.093666 0.093987 0.0940252 0.093666 0.0936996 0.0936226 0.093666 0.093309 0.0933463 0.093666 0.0936996 0.0933463 0.0933751 0.0960106 0.0960537 0.0956751 0.0957168 0.0960537 0.0960845 0.0957168 0.0957469 0.0956751 0.0957168 0.0953416 0.0953815 0.0957168 0.0957469 0.0953815 0.0954104 0.0960845 0.0961059 0.0957469 0.095768 0.0961059 0.0961204 0.095768 0.0957826 0.0957469 0.095768 0.0954104 0.0954311 0.095768 0.0957826 0.0954311 0.0954454 0.0953416 0.0953815 0.09501 0.0950476 0.0953815 0.0954104 0.0950476 0.0950752 0.09501 0.0950476 0.0946802 0.0947152 0.0950476 0.0950752 0.0947152 0.0947411 0.0954104 0.0954311 0.0950752 0.0950951 0.0954311 0.0954454 0.0950951 0.095109 0.0950752 0.0950951 0.0947411 0.0947599 0.0950951 0.095109 0.0947599 0.0947732 0.0961204 0.0961298 0.0957826 0.0957922 0.0961298 0.0961355 0.0957922 0.0957982 0.0957826 0.0957922 0.0954454 0.0954551 0.0957922 0.0957982 0.0954551 0.0954613 0.0961355 0.0961387 0.0957982 0.0958018 0.0961387 0.0961402 0.0958018 0.0958036 0.0957982 0.0958018 0.0954613 0.0954651 0.0958018 0.0958036 0.0954651 0.0954671 0.0954454 0.0954551 0.095109 0.0951185 0.0954551 0.0954613 0.0951185 0.0951247 0.095109 0.0951185 0.0947732 0.0947824 0.0951185 0.0951247 0.0947824 0.0947885 0.0954613 0.0954651 0.0951247 0.0951286 0.0954651 0.0954671 0.0951286 0.0951308 0.0951247 0.0951286 0.0947885 0.0947924 0.0951286 0.0951308 0.0947924 0.0947947 0.0946802 0.0947152 0.094352 0.0943841 0.0947152 0.0947411 0.0943841 0.094408 0.094352 0.0943841 0.0940252 0.0940541 0.0943841 0.094408 0.0940541 0.0940759 0.0947411 0.0947599 0.094408 0.0944255 0.0947599 0.0947732 0.0944255 0.094438 0.094408 0.0944255 0.0940759 0.0940918 0.0944255 0.094438 0.0940918 0.0941034 0.0940252 0.0940541 0.0936996 0.0937252 0.0940541 0.0940759 0.0937252 0.0937446 0.0936996 0.0937252 0.0933751 0.0933973 0.0937252 0.0937446 0.0933973 0.093414 0.0940759 0.0940918 0.0937446 0.0937589 0.0940918 0.0941034 0.0937589 0.0937693 0.0937446 0.0937589 0.093414 0.0934265 0.0937589 0.0937693 0.0934265 0.0934357 0.0947732 0.0947824 0.094438 0.0944467 0.0947824 0.0947885 0.0944467 0.0944526 0.094438 0.0944467 0.0941034 0.0941115 0.0944467 0.0944526 0.0941115 0.094117 0.0947885 0.0947924 0.0944526 0.0944564 0.0947924 0.0947947 0.0944564 0.0944587 0.0944526 0.0944564 0.094117 0.0941207 0.0944564 0.0944587 0.0941207 0.0941229 0.0941034 0.0941115 0.0937693 0.0937767 0.0941115 0.094117 0.0937767 0.0937817 0.0937693 0.0937767 0.0934357 0.0934422 0.0937767 0.0937817 0.0934422 0.0934467 0.094117 0.0941207 0.0937817 0.0937851 0.0941207 0.0941229 0.0937851 0.0937873 0.0937817 0.0937851 0.0934467 0.0934498 0.0937851 0.0937873 0.0934498 0.0934518 0.0927042 0.0928847 0.0924706 0.0926328 0.0928847 0.0930192 0.0926328 0.0927509 0.0924706 0.0926328 0.0922337 0.0923792 0.0926328 0.0927509 0.0923792 0.092482 0.0930192 0.0931214 0.0927509 0.0928388 0.0931214 0.0932001 0.0928388 0.0929054 0.0927509 0.0928388 0.092482 0.0925563 0.0928388 0.0929054 0.0925563 0.0926113 0.0922337 0.0923792 0.0919931 0.0921235 0.0923792 0.092482 0.0921235 0.092212 0.0919931 0.0921235 0.0917486 0.0918654 0.0921235 0.092212 0.0918654 0.0919407 0.092482 0.0925563 0.092212 0.0922735 0.0925563 0.0926113 0.0922735 0.0923174 0.092212 0.0922735 0.0919407 0.0919901 0.0922735 0.0923174 0.0919901 0.0920233 0.0932001 0.0932612 0.0929054 0.0929567 0.0932612 0.093309 0.0929567 0.0929965 0.0929054 0.0929567 0.0926113 0.0926529 0.0929567 0.0929965 0.0926529 0.0926849 0.093309 0.0933463 0.0929965 0.0930275 0.0933463 0.0933751 0.0930275 0.0930516 0.0929965 0.0930275 0.0926849 0.0927097 0.0930275 0.0930516 0.0927097 0.0927288 0.0926113 0.0926529 0.0923174 0.0923496 0.0926529 0.0926849 0.0923496 0.0923739 0.0923174 0.0923496 0.0920233 0.0920465 0.0923496 0.0923739 0.0920465 0.0920632 0.0926849 0.0927097 0.0923739 0.0923924 0.0927097 0.0927288 0.0923924 0.0924067 0.0923739 0.0923924 0.0920632 0.0920756 0.0923924 0.0924067 0.0920756 0.092085 0.0917486 0.0918654 0.0914999 0.0916044 0.0918654 0.0919407 0.0916044 0.0916676 0.0914999 0.0916044 0.0912469 0.0913404 0.0916044 0.0916676 0.0913404 0.0913926 0.0919407 0.0919901 0.0916676 0.0917057 0.0919901 0.0920233 0.0917057 0.0917289 0.0916676 0.0917057 0.0913926 0.0914201 0.0917057 0.0917289 0.0914201 0.0914337 0.0912469 0.0913404 0.0909894 0.0910732 0.0913404 0.0913926 0.0910732 0.0911152 0.0909894 0.0910732 0.0907272 0.0908025 0.0910732 0.0911152 0.0908025 0.0908354 0.0913926 0.0914201 0.0911152 0.091133 0.0914201 0.0914337 0.091133 0.0911376 0.0911152 0.091133 0.0908354 0.0908441 0.091133 0.0911376 0.0908441 0.0908404 0.0920233 0.0920465 0.0917289 0.0917433 0.0920465 0.0920632 0.0917433 0.0917527 0.0917289 0.0917433 0.0914337 0.0914398 0.0917433 0.0917527 0.0914398 0.0914421 0.0920632 0.0920756 0.0917527 0.0917591 0.0920756 0.092085 0.0917591 0.0917637 0.0917527 0.0917591 0.0914421 0.0914426 0.0917591 0.0917637 0.0914426 0.0914425 0.0914337 0.0914398 0.0911376 0.0911358 0.0914398 0.0914421 0.0911358 0.0911313 0.0911376 0.0911358 0.0908404 0.090831 0.0911358 0.0911313 0.090831 0.09082 0.0914421 0.0914426 0.0911313 0.0911261 0.0914426 0.0914425 0.0911261 0.0911213 0.0911313 0.0911261 0.09082 0.0908094 0.0911261 0.0911213 0.0908094 0.0908001 0.0933751 0.0933973 0.0930516 0.0930701 0.0933973 0.093414 0.0930701 0.0930842 0.0930516 0.0930701 0.0927288 0.0927436 0.0930701 0.0930842 0.0927436 0.0927549 0.093414 0.0934265 0.0930842 0.0930947 0.0934265 0.0934357 0.0930947 0.0931025 0.0930842 0.0930947 0.0927549 0.0927634 0.0930947 0.0931025 0.0927634 0.0927697 0.0927288 0.0927436 0.0924067 0.0924177 0.0927436 0.0927549 0.0924177 0.0924261 0.0924067 0.0924177 0.092085 0.0920922 0.0924177 0.0924261 0.0920922 0.0920977 0.0927549 0.0927634 0.0924261 0.0924325 0.0927634 0.0927697 0.0924325 0.0924372 0.0924261 0.0924325 0.0920977 0.0921019 0.0924325 0.0924372 0.0921019 0.0921051 0.0934357 0.0934422 0.0931025 0.0931081 0.0934422 0.0934467 0.0931081 0.093112 0.0931025 0.0931081 0.0927697 0.0927743 0.0931081 0.093112 0.0927743 0.0927775 0.0934467 0.0934498 0.093112 0.0931147 0.0934498 0.0934518 0.0931147 0.0931165 0.093112 0.0931147 0.0927775 0.0927798 0.0931147 0.0931165 0.0927798 0.0927812 0.0927697 0.0927743 0.0924372 0.0924407 0.0927743 0.0927775 0.0924407 0.0924432 0.0924372 0.0924407 0.0921051 0.0921074 0.0924407 0.0924432 0.0921074 0.0921091 0.0927775 0.0927798 0.0924432 0.092445 0.0927798 0.0927812 0.092445 0.0924462 0.0924432 0.092445 0.0921091 0.0921103 0.092445 0.0924462 0.0921103 0.0921112 0.092085 0.0920922 0.0917637 0.0917671 0.0920922 0.0920977 0.0917671 0.0917696 0.0917637 0.0917671 0.0914425 0.0914421 0.0917671 0.0917696 0.0914421 0.0914418 0.0920977 0.0921019 0.0917696 0.0917716 0.0921019 0.0921051 0.0917716 0.0917732 0.0917696 0.0917716 0.0914418 0.0914416 0.0917716 0.0917732 0.0914416 0.0914414 0.0914425 0.0914421 0.0911213 0.0911173 0.0914421 0.0914418 0.0911173 0.0911141 0.0911213 0.0911173 0.0908001 0.0907925 0.0911173 0.0911141 0.0907925 0.0907864 0.0914418 0.0914416 0.0911141 0.0911116 0.0914416 0.0914414 0.0911116 0.0911099 0.0911141 0.0911116 0.0907864 0.0907818 0.0911116 0.0911099 0.0907818 0.0907784 0.0921051 0.0921074 0.0917732 0.0917743 0.0921074 0.0921091 0.0917743 0.0917752 0.0917732 0.0917743 0.0914414 0.0914414 0.0917743 0.0917752 0.0914414 0.0914414 0.0921091 0.0921103 0.0917752 0.0917758 0.0921103 0.0921112 0.0917758 0.0917763 0.0917752 0.0917758 0.0914414 0.0914415 0.0917758 0.0917763 0.0914415 0.0914415 0.0914414 0.0914414 0.0911099 0.0911086 0.0914414 0.0914414 0.0911086 0.0911077 0.0911099 0.0911086 0.0907784 0.0907759 0.0911086 0.0911077 0.0907759 0.0907741 0.0914414 0.0914415 0.0911077 0.0911072 0.0914415 0.0914415 0.0911072 0.0911068 0.0911077 0.0911072 0.0907741 0.0907729 0.0911072 0.09