# vtk DataFile Version 3.0
#This file was generated by the deal.II library on 2022/1/6 at 22:58:38
ASCII
DATASET UNSTRUCTURED_GRID

POINTS 16384 double
0 0 0
0.1875 0 0
0 0.046875 0
0.1875 0.046875 0
0.1875 0 0
0.375 0 0
0.1875 0.046875 0
0.375 0.046875 0
0 0.046875 0
0.1875 0.046875 0
0 0.09375 0
0.1875 0.09375 0
0.1875 0.046875 0
0.375 0.046875 0
0.1875 0.09375 0
0.375 0.09375 0
0.375 0 0
0.5625 0 0
0.375 0.046875 0
0.5625 0.046875 0
0.5625 0 0
0.75 0 0
0.5625 0.046875 0
0.75 0.046875 0
0.375 0.046875 0
0.5625 0.046875 0
0.375 0.09375 0
0.5625 0.09375 0
0.5625 0.046875 0
0.75 0.046875 0
0.5625 0.09375 0
0.75 0.09375 0
0 0.09375 0
0.1875 0.09375 0
0 0.140625 0
0.1875 0.140625 0
0.1875 0.09375 0
0.375 0.09375 0
0.1875 0.140625 0
0.375 0.140625 0
0 0.140625 0
0.1875 0.140625 0
0 0.1875 0
0.1875 0.1875 0
0.1875 0.140625 0
0.375 0.140625 0
0.1875 0.1875 0
0.375 0.1875 0
0.375 0.09375 0
0.5625 0.09375 0
0.375 0.140625 0
0.5625 0.140625 0
0.5625 0.09375 0
0.75 0.09375 0
0.5625 0.140625 0
0.75 0.140625 0
0.375 0.140625 0
0.5625 0.140625 0
0.375 0.1875 0
0.5625 0.1875 0
0.5625 0.140625 0
0.75 0.140625 0
0.5625 0.1875 0
0.75 0.1875 0
0.75 0 0
0.9375 0 0
0.75 0.046875 0
0.9375 0.046875 0
0.9375 0 0
1.125 0 0
0.9375 0.046875 0
1.125 0.046875 0
0.75 0.046875 0
0.9375 0.046875 0
0.75 0.09375 0
0.9375 0.09375 0
0.9375 0.046875 0
1.125 0.046875 0
0.9375 0.09375 0
1.125 0.09375 0
1.125 0 0
1.3125 0 0
1.125 0.046875 0
1.3125 0.046875 0
1.3125 0 0
1.5 0 0
1.3125 0.046875 0
1.5 0.046875 0
1.125 0.046875 0
1.3125 0.046875 0
1.125 0.09375 0
1.3125 0.09375 0
1.3125 0.046875 0
1.5 0.046875 0
1.3125 0.09375 0
1.5 0.09375 0
0.75 0.09375 0
0.9375 0.09375 0
0.75 0.140625 0
0.9375 0.140625 0
0.9375 0.09375 0
1.125 0.09375 0
0.9375 0.140625 0
1.125 0.140625 0
0.75 0.140625 0
0.9375 0.140625 0
0.75 0.1875 0
0.9375 0.1875 0
0.9375 0.140625 0
1.125 0.140625 0
0.9375 0.1875 0
1.125 0.1875 0
1.125 0.09375 0
1.3125 0.09375 0
1.125 0.140625 0
1.3125 0.140625 0
1.3125 0.09375 0
1.5 0.09375 0
1.3125 0.140625 0
1.5 0.140625 0
1.125 0.140625 0
1.3125 0.140625 0
1.125 0.1875 0
1.3125 0.1875 0
1.3125 0.140625 0
1.5 0.140625 0
1.3125 0.1875 0
1.5 0.1875 0
0 0.1875 0
0.1875 0.1875 0
0 0.234375 0
0.1875 0.234375 0
0.1875 0.1875 0
0.375 0.1875 0
0.1875 0.234375 0
0.375 0.234375 0
0 0.234375 0
0.1875 0.234375 0
0 0.28125 0
0.1875 0.28125 0
0.1875 0.234375 0
0.375 0.234375 0
0.1875 0.28125 0
0.375 0.28125 0
0.375 0.1875 0
0.5625 0.1875 0
0.375 0.234375 0
0.5625 0.234375 0
0.5625 0.1875 0
0.75 0.1875 0
0.5625 0.234375 0
0.75 0.234375 0
0.375 0.234375 0
0.5625 0.234375 0
0.375 0.28125 0
0.5625 0.28125 0
0.5625 0.234375 0
0.75 0.234375 0
0.5625 0.28125 0
0.75 0.28125 0
0 0.28125 0
0.1875 0.28125 0
0 0.328125 0
0.1875 0.328125 0
0.1875 0.28125 0
0.375 0.28125 0
0.1875 0.328125 0
0.375 0.328125 0
0 0.328125 0
0.1875 0.328125 0
0 0.375 0
0.1875 0.375 0
0.1875 0.328125 0
0.375 0.328125 0
0.1875 0.375 0
0.375 0.375 0
0.375 0.28125 0
0.5625 0.28125 0
0.375 0.328125 0
0.5625 0.328125 0
0.5625 0.28125 0
0.75 0.28125 0
0.5625 0.328125 0
0.75 0.328125 0
0.375 0.328125 0
0.5625 0.328125 0
0.375 0.375 0
0.5625 0.375 0
0.5625 0.328125 0
0.75 0.328125 0
0.5625 0.375 0
0.75 0.375 0
0.75 0.1875 0
0.9375 0.1875 0
0.75 0.234375 0
0.9375 0.234375 0
0.9375 0.1875 0
1.125 0.1875 0
0.9375 0.234375 0
1.125 0.234375 0
0.75 0.234375 0
0.9375 0.234375 0
0.75 0.28125 0
0.9375 0.28125 0
0.9375 0.234375 0
1.125 0.234375 0
0.9375 0.28125 0
1.125 0.28125 0
1.125 0.1875 0
1.3125 0.1875 0
1.125 0.234375 0
1.3125 0.234375 0
1.3125 0.1875 0
1.5 0.1875 0
1.3125 0.234375 0
1.5 0.234375 0
1.125 0.234375 0
1.3125 0.234375 0
1.125 0.28125 0
1.3125 0.28125 0
1.3125 0.234375 0
1.5 0.234375 0
1.3125 0.28125 0
1.5 0.28125 0
0.75 0.28125 0
0.9375 0.28125 0
0.75 0.328125 0
0.9375 0.328125 0
0.9375 0.28125 0
1.125 0.28125 0
0.9375 0.328125 0
1.125 0.328125 0
0.75 0.328125 0
0.9375 0.328125 0
0.75 0.375 0
0.9375 0.375 0
0.9375 0.328125 0
1.125 0.328125 0
0.9375 0.375 0
1.125 0.375 0
1.125 0.28125 0
1.3125 0.28125 0
1.125 0.328125 0
1.3125 0.328125 0
1.3125 0.28125 0
1.5 0.28125 0
1.3125 0.328125 0
1.5 0.328125 0
1.125 0.328125 0
1.3125 0.328125 0
1.125 0.375 0
1.3125 0.375 0
1.3125 0.328125 0
1.5 0.328125 0
1.3125 0.375 0
1.5 0.375 0
1.5 0 0
1.6875 0 0
1.5 0.046875 0
1.6875 0.046875 0
1.6875 0 0
1.875 0 0
1.6875 0.046875 0
1.875 0.046875 0
1.5 0.046875 0
1.6875 0.046875 0
1.5 0.09375 0
1.6875 0.09375 0
1.6875 0.046875 0
1.875 0.046875 0
1.6875 0.09375 0
1.875 0.09375 0
1.875 0 0
2.0625 0 0
1.875 0.046875 0
2.0625 0.046875 0
2.0625 0 0
2.25 0 0
2.0625 0.046875 0
2.25 0.046875 0
1.875 0.046875 0
2.0625 0.046875 0
1.875 0.09375 0
2.0625 0.09375 0
2.0625 0.046875 0
2.25 0.046875 0
2.0625 0.09375 0
2.25 0.09375 0
1.5 0.09375 0
1.6875 0.09375 0
1.5 0.140625 0
1.6875 0.140625 0
1.6875 0.09375 0
1.875 0.09375 0
1.6875 0.140625 0
1.875 0.140625 0
1.5 0.140625 0
1.6875 0.140625 0
1.5 0.1875 0
1.6875 0.1875 0
1.6875 0.140625 0
1.875 0.140625 0
1.6875 0.1875 0
1.875 0.1875 0
1.875 0.09375 0
2.0625 0.09375 0
1.875 0.140625 0
2.0625 0.140625 0
2.0625 0.09375 0
2.25 0.09375 0
2.0625 0.140625 0
2.25 0.140625 0
1.875 0.140625 0
2.0625 0.140625 0
1.875 0.1875 0
2.0625 0.1875 0
2.0625 0.140625 0
2.25 0.140625 0
2.0625 0.1875 0
2.25 0.1875 0
2.25 0 0
2.4375 0 0
2.25 0.046875 0
2.4375 0.046875 0
2.4375 0 0
2.625 0 0
2.4375 0.046875 0
2.625 0.046875 0
2.25 0.046875 0
2.4375 0.046875 0
2.25 0.09375 0
2.4375 0.09375 0
2.4375 0.046875 0
2.625 0.046875 0
2.4375 0.09375 0
2.625 0.09375 0
2.625 0 0
2.8125 0 0
2.625 0.046875 0
2.8125 0.046875 0
2.8125 0 0
3 0 0
2.8125 0.046875 0
3 0.046875 0
2.625 0.046875 0
2.8125 0.046875 0
2.625 0.09375 0
2.8125 0.09375 0
2.8125 0.046875 0
3 0.046875 0
2.8125 0.09375 0
3 0.09375 0
2.25 0.09375 0
2.4375 0.09375 0
2.25 0.140625 0
2.4375 0.140625 0
2.4375 0.09375 0
2.625 0.09375 0
2.4375 0.140625 0
2.625 0.140625 0
2.25 0.140625 0
2.4375 0.140625 0
2.25 0.1875 0
2.4375 0.1875 0
2.4375 0.140625 0
2.625 0.140625 0
2.4375 0.1875 0
2.625 0.1875 0
2.625 0.09375 0
2.8125 0.09375 0
2.625 0.140625 0
2.8125 0.140625 0
2.8125 0.09375 0
3 0.09375 0
2.8125 0.140625 0
3 0.140625 0
2.625 0.140625 0
2.8125 0.140625 0
2.625 0.1875 0
2.8125 0.1875 0
2.8125 0.140625 0
3 0.140625 0
2.8125 0.1875 0
3 0.1875 0
1.5 0.1875 0
1.6875 0.1875 0
1.5 0.234375 0
1.6875 0.234375 0
1.6875 0.1875 0
1.875 0.1875 0
1.6875 0.234375 0
1.875 0.234375 0
1.5 0.234375 0
1.6875 0.234375 0
1.5 0.28125 0
1.6875 0.28125 0
1.6875 0.234375 0
1.875 0.234375 0
1.6875 0.28125 0
1.875 0.28125 0
1.875 0.1875 0
2.0625 0.1875 0
1.875 0.234375 0
2.0625 0.234375 0
2.0625 0.1875 0
2.25 0.1875 0
2.0625 0.234375 0
2.25 0.234375 0
1.875 0.234375 0
2.0625 0.234375 0
1.875 0.28125 0
2.0625 0.28125 0
2.0625 0.234375 0
2.25 0.234375 0
2.0625 0.28125 0
2.25 0.28125 0
1.5 0.28125 0
1.6875 0.28125 0
1.5 0.328125 0
1.6875 0.328125 0
1.6875 0.28125 0
1.875 0.28125 0
1.6875 0.328125 0
1.875 0.328125 0
1.5 0.328125 0
1.6875 0.328125 0
1.5 0.375 0
1.6875 0.375 0
1.6875 0.328125 0
1.875 0.328125 0
1.6875 0.375 0
1.875 0.375 0
1.875 0.28125 0
2.0625 0.28125 0
1.875 0.328125 0
2.0625 0.328125 0
2.0625 0.28125 0
2.25 0.28125 0
2.0625 0.328125 0
2.25 0.328125 0
1.875 0.328125 0
2.0625 0.328125 0
1.875 0.375 0
2.0625 0.375 0
2.0625 0.328125 0
2.25 0.328125 0
2.0625 0.375 0
2.25 0.375 0
2.25 0.1875 0
2.4375 0.1875 0
2.25 0.234375 0
2.4375 0.234375 0
2.4375 0.1875 0
2.625 0.1875 0
2.4375 0.234375 0
2.625 0.234375 0
2.25 0.234375 0
2.4375 0.234375 0
2.25 0.28125 0
2.4375 0.28125 0
2.4375 0.234375 0
2.625 0.234375 0
2.4375 0.28125 0
2.625 0.28125 0
2.625 0.1875 0
2.8125 0.1875 0
2.625 0.234375 0
2.8125 0.234375 0
2.8125 0.1875 0
3 0.1875 0
2.8125 0.234375 0
3 0.234375 0
2.625 0.234375 0
2.8125 0.234375 0
2.625 0.28125 0
2.8125 0.28125 0
2.8125 0.234375 0
3 0.234375 0
2.8125 0.28125 0
3 0.28125 0
2.25 0.28125 0
2.4375 0.28125 0
2.25 0.328125 0
2.4375 0.328125 0
2.4375 0.28125 0
2.625 0.28125 0
2.4375 0.328125 0
2.625 0.328125 0
2.25 0.328125 0
2.4375 0.328125 0
2.25 0.375 0
2.4375 0.375 0
2.4375 0.328125 0
2.625 0.328125 0
2.4375 0.375 0
2.625 0.375 0
2.625 0.28125 0
2.8125 0.28125 0
2.625 0.328125 0
2.8125 0.328125 0
2.8125 0.28125 0
3 0.28125 0
2.8125 0.328125 0
3 0.328125 0
2.625 0.328125 0
2.8125 0.328125 0
2.625 0.375 0
2.8125 0.375 0
2.8125 0.328125 0
3 0.328125 0
2.8125 0.375 0
3 0.375 0
0 0.375 0
0.1875 0.375 0
0 0.421875 0
0.1875 0.421875 0
0.1875 0.375 0
0.375 0.375 0
0.1875 0.421875 0
0.375 0.421875 0
0 0.421875 0
0.1875 0.421875 0
0 0.46875 0
0.1875 0.46875 0
0.1875 0.421875 0
0.375 0.421875 0
0.1875 0.46875 0
0.375 0.46875 0
0.375 0.375 0
0.5625 0.375 0
0.375 0.421875 0
0.5625 0.421875 0
0.5625 0.375 0
0.75 0.375 0
0.5625 0.421875 0
0.75 0.421875 0
0.375 0.421875 0
0.5625 0.421875 0
0.375 0.46875 0
0.5625 0.46875 0
0.5625 0.421875 0
0.75 0.421875 0
0.5625 0.46875 0
0.75 0.46875 0
0 0.46875 0
0.1875 0.46875 0
0 0.515625 0
0.1875 0.515625 0
0.1875 0.46875 0
0.375 0.46875 0
0.1875 0.515625 0
0.375 0.515625 0
0 0.515625 0
0.1875 0.515625 0
0 0.5625 0
0.1875 0.5625 0
0.1875 0.515625 0
0.375 0.515625 0
0.1875 0.5625 0
0.375 0.5625 0
0.375 0.46875 0
0.5625 0.46875 0
0.375 0.515625 0
0.5625 0.515625 0
0.5625 0.46875 0
0.75 0.46875 0
0.5625 0.515625 0
0.75 0.515625 0
0.375 0.515625 0
0.5625 0.515625 0
0.375 0.5625 0
0.5625 0.5625 0
0.5625 0.515625 0
0.75 0.515625 0
0.5625 0.5625 0
0.75 0.5625 0
0.75 0.375 0
0.9375 0.375 0
0.75 0.421875 0
0.9375 0.421875 0
0.9375 0.375 0
1.125 0.375 0
0.9375 0.421875 0
1.125 0.421875 0
0.75 0.421875 0
0.9375 0.421875 0
0.75 0.46875 0
0.9375 0.46875 0
0.9375 0.421875 0
1.125 0.421875 0
0.9375 0.46875 0
1.125 0.46875 0
1.125 0.375 0
1.3125 0.375 0
1.125 0.421875 0
1.3125 0.421875 0
1.3125 0.375 0
1.5 0.375 0
1.3125 0.421875 0
1.5 0.421875 0
1.125 0.421875 0
1.3125 0.421875 0
1.125 0.46875 0
1.3125 0.46875 0
1.3125 0.421875 0
1.5 0.421875 0
1.3125 0.46875 0
1.5 0.46875 0
0.75 0.46875 0
0.9375 0.46875 0
0.75 0.515625 0
0.9375 0.515625 0
0.9375 0.46875 0
1.125 0.46875 0
0.9375 0.515625 0
1.125 0.515625 0
0.75 0.515625 0
0.9375 0.515625 0
[...]
POINT_DATA 16384
SCALARS x_displacement double 1
LOOKUP_TABLE default
0 0.0337273 0 0.030141 0.0337273 0.0595272 0.030141 0.0578342 0 0.030141 0 0.0276816 0.030141 0.0578342 0.0276816 0.0550451 0.0595272 0.0757987 0.0578342 0.0744711 0.0757987 0.0823699 0.0744711 0.0815387 0.0578342 0.0744711 0.0550451 0.0724606 0.0744711 0.0815387 0.0724606 0.0802685 0 0.0276816 0 0.0256653 0.0276816 0.0550451 0.0256653 0.0514663 0 0.0256653 0 0.0239746 0.0256653 0.0514663 0.0239746 0.0478354 0.0550451 0.0724606 0.0514663 0.0696649 0.0724606 0.0802685 0.0696649 0.0785975 0.0514663 0.0696649 0.0478354 0.065936 0.0696649 0.0785975 0.065936 0.076657 0.0823699 0.0885939 0.0815387 0.0882285 0.0885939 0.0954286 0.0882285 0.0954091 0.0815387 0.0882285 0.0802685 0.0876281 0.0882285 0.0954091 0.0876281 0.0952094 0.0954286 0.102397 0.0954091 0.102526 0.102397 0.109113 0.102526 0.109314 0.0954091 0.102526 0.0952094 0.10253 0.102526 0.109314 0.10253 0.109419 0.0802685 0.0876281 0.0785975 0.0868329 0.0876281 0.0952094 0.0868329 0.0948576 0.0785975 0.0868329 0.076657 0.0858897 0.0868329 0.0948576 0.0858897 0.0943756 0.0952094 0.10253 0.0948576 0.102417 0.10253 0.109419 0.102417 0.109435 0.0948576 0.102417 0.0943756 0.102201 0.102417 0.109435 0.102201 0.109368 0 0.0239746 0 0.0225453 0.0239746 0.0478354 0.0225453 0.0444416 0 0.0225453 0 0.0212906 0.0225453 0.0444416 0.0212906 0.0417508 0.0478354 0.065936 0.0444416 0.0621541 0.065936 0.076657 0.0621541 0.0746823 0.0444416 0.0621541 0.0417508 0.0591235 0.0621541 0.0746823 0.0591235 0.072709 0 0.0212906 0 0.0202341 0.0212906 0.0417508 0.0202341 0.0396159 0 0.0202341 0 0.0193644 0.0202341 0.0396159 0.0193644 0.037914 0.0417508 0.0591235 0.0396159 0.0566992 0.0591235 0.072709 0.0566992 0.070864 0.0396159 0.0566992 0.037914 0.0547186 0.0566992 0.070864 0.0547186 0.0691957 0.076657 0.0858897 0.0746823 0.0848211 0.0858897 0.0943756 0.0848211 0.093791 0.0746823 0.0848211 0.072709 0.0836844 0.0848211 0.093791 0.0836844 0.0931251 0.0943756 0.102201 0.093791 0.101896 0.102201 0.109368 0.101896 0.109227 0.093791 0.101896 0.0931251 0.101515 0.101896 0.109227 0.101515 0.109021 0.072709 0.0836844 0.070864 0.0825125 0.0836844 0.0931251 0.0825125 0.0924022 0.070864 0.0825125 0.0691957 0.0813466 0.0825125 0.0924022 0.0813466 0.0916412 0.0931251 0.101515 0.0924022 0.101073 0.101515 0.109021 0.101073 0.108758 0.0924022 0.101073 0.0916412 0.100583 0.101073 0.108758 0.100583 0.108445 0.109113 0.115406 0.109314 0.115633 0.115406 0.121195 0.115633 0.121418 0.109314 0.115633 0.109419 0.115785 0.115633 0.121418 0.115785 0.121582 0.121195 0.126446 0.121418 0.126647 0.126446 0.131154 0.126647 0.131319 0.121418 0.126647 0.121582 0.1268 0.126647 0.131319 0.1268 0.131447 0.109419 0.115785 0.109435 0.115865 0.115785 0.121582 0.115865 0.121689 0.109435 0.115865 0.109368 0.115879 0.115865 0.121689 0.115879 0.121741 0.121582 0.1268 0.121689 0.126907 0.1268 0.131447 0.126907 0.131539 0.121689 0.126907 0.121741 0.126971 0.126907 0.131539 0.126971 0.131596 0.131154 0.135331 0.131319 0.135454 0.135331 0.139002 0.135454 0.13908 0.131319 0.135454 0.131447 0.135548 0.135454 0.13908 0.135548 0.139135 0.139002 0.142199 0.13908 0.14223 0.142199 0.14496 0.14223 0.144946 0.13908 0.14223 0.139135 0.142245 0.14223 0.144946 0.142245 0.144919 0.131447 0.135548 0.131539 0.135614 0.135548 0.139135 0.135614 0.139168 0.131539 0.135614 0.131596 0.135652 0.135614 0.139168 0.135652 0.13918 0.139135 0.142245 0.139168 0.142242 0.142245 0.144919 0.142242 0.14488 0.139168 0.142242 0.13918 0.142223 0.142242 0.14488 0.142223 0.144828 0.109368 0.115879 0.109227 0.115833 0.115879 0.121741 0.115833 0.121744 0.109227 0.115833 0.109021 0.11573 0.115833 0.121744 0.11573 0.1217 0.121741 0.126971 0.121744 0.126994 0.126971 0.131596 0.126994 0.13162 0.121744 0.126994 0.1217 0.126978 0.126994 0.13162 0.126978 0.131611 0.109021 0.11573 0.108758 0.115578 0.11573 0.1217 0.115578 0.121613 0.108758 0.115578 0.108445 0.115381 0.115578 0.121613 0.115381 0.121487 0.1217 0.126978 0.121613 0.126926 0.126978 0.131611 0.126926 0.131573 0.121613 0.126926 0.121487 0.12684 0.126926 0.131573 0.12684 0.131505 0.131596 0.135652 0.13162 0.135663 0.135652 0.13918 0.135663 0.13917 0.13162 0.135663 0.131611 0.135648 0.135663 0.13917 0.135648 0.139139 0.13918 0.142223 0.13917 0.142187 0.142223 0.144828 0.142187 0.144764 0.13917 0.142187 0.139139 0.142134 0.142187 0.144764 0.142134 0.144686 0.131611 0.135648 0.131573 0.135608 0.135648 0.139139 0.135608 0.139088 0.131573 0.135608 0.131505 0.135544 0.135608 0.139088 0.135544 0.139017 0.139139 0.142134 0.139088 0.142065 0.142134 0.144686 0.142065 0.144595 0.139088 0.142065 0.139017 0.141981 0.142065 0.144595 0.141981 0.144492 0 0.0193644 0 0.0186564 0.0193644 0.037914 0.0186564 0.0365483 0 0.0186564 0 0.0180823 0.0186564 0.0365483 0.0180823 0.0354448 0.037914 0.0547186 0.0365483 0.0530806 0.0547186 0.0691957 0.0530806 0.0677082 0.0365483 0.0530806 0.0354448 0.0517146 0.0530806 0.0677082 0.0517146 0.0663905 0 0.0180823 0 0.0176164 0.0180823 0.0354448 0.0176164 0.0345472 0 0.0176164 0 0.017237 0.0176164 0.0345472 0.017237 0.0338119 0.0354448 0.0517146 0.0345472 0.0505679 0.0517146 0.0663905 0.0505679 0.0652266 0.0345472 0.0505679 0.0338119 0.0496 0.0505679 0.0652266 0.0496 0.0641997 0.0691957 0.0813466 0.0677082 0.0802191 0.0813466 0.0916412 0.0802191 0.0908608 0.0677082 0.0802191 0.0663905 0.0791496 0.0802191 0.0908608 0.0791496 0.0900775 0.0916412 0.100583 0.0908608 0.100056 0.100583 0.108445 0.100056 0.108093 0.0908608 0.100056 0.0900775 0.0995032 0.100056 0.108093 0.0995032 0.107707 0.0663905 0.0791496 0.0652266 0.0781485 0.0791496 0.0900775 0.0781485 0.0893049 0.0652266 0.0781485 0.0641997 0.0772197 0.0781485 0.0893049 0.0772197 0.0885533 0.0900775 0.0995032 0.0893049 0.0989355 0.0995032 0.107707 0.0989355 0.107296 0.0893049 0.0989355 0.0885533 0.0983611 0.0989355 0.107296 0.0983611 0.106866 0 0.017237 0 0.0169262 0.017237 0.0338119 0.0169262 0.0332053 0 0.0169262 0 0.01667 0.0169262 0.0332053 0.01667 0.0327012 0.0338119 0.0496 0.0332053 0.0487785 0.0496 0.0641997 0.0487785 0.0632934 0.0332053 0.0487785 0.0327012 0.0480776 0.0487785 0.0632934 0.0480776 0.0624928 0 0.01667 0 0.0164572 0.01667 0.0327012 0.0164572 0.0322791 0 0.0164572 0 0.0162789 0.0164572 0.0322791 0.0162789 0.0319227 0.0327012 0.0480776 0.0322791 0.0474764 0.0480776 0.0624928 0.0474764 0.0617844 0.0322791 0.0474764 0.0319227 0.0469578 0.0474764 0.0617844 0.0469578 0.061156 0.0641997 0.0772197 0.0632934 0.0763632 0.0772197 0.0885533 0.0763632 0.0878297 0.0632934 0.0763632 0.0624928 0.0755765 0.0763632 0.0878297 0.0755765 0.0871388 0.0885533 0.0983611 0.0878297 0.0977873 0.0983611 0.106866 0.0977873 0.106423 0.0878297 0.0977873 0.0871388 0.0972202 0.0977873 0.106423 0.0972202 0.105972 0.0624928 0.0755765 0.0617844 0.0748556 0.0755765 0.0871388 0.0748556 0.086483 0.0617844 0.0748556 0.061156 0.0741961 0.0748556 0.086483 0.0741961 0.0858634 0.0871388 0.0972202 0.086483 0.0966645 0.0972202 0.105972 0.0966645 0.105517 0.086483 0.0966645 0.0858634 0.0961236 0.0966645 0.105517 0.0961236 0.105063 0.108445 0.115381 0.108093 0.115144 0.115381 0.121487 0.115144 0.121325 0.108093 0.115144 0.107707 0.114874 0.115144 0.121325 0.114874 0.121132 0.121487 0.12684 0.121325 0.126723 0.12684 0.131505 0.126723 0.131411 0.121325 0.126723 0.121132 0.126577 0.126723 0.131411 0.126577 0.131292 0.107707 0.114874 0.107296 0.114576 0.114874 0.121132 0.114576 0.12091 0.107296 0.114576 0.106866 0.114253 0.114576 0.12091 0.114253 0.120664 0.121132 0.126577 0.12091 0.126405 0.126577 0.131292 0.126405 0.131149 0.12091 0.126405 0.120664 0.12621 0.126405 0.131149 0.12621 0.130986 0.131505 0.135544 0.131411 0.135458 0.135544 0.139017 0.135458 0.138927 0.131411 0.135458 0.131292 0.13535 0.135458 0.138927 0.13535 0.138819 0.139017 0.141981 0.138927 0.14188 0.141981 0.144492 0.14188 0.144376 0.138927 0.14188 0.138819 0.141764 0.14188 0.144376 0.141764 0.144247 0.131292 0.13535 0.131149 0.135221 0.13535 0.138819 0.135221 0.138693 0.131149 0.135221 0.130986 0.135074 0.135221 0.138693 0.135074 0.138551 0.138819 0.141764 0.138693 0.141634 0.141764 0.144247 0.141634 0.144106 0.138693 0.141634 0.138551 0.141489 0.141634 0.144106 0.141489 0.143953 0.106866 0.114253 0.106423 0.113912 0.114253 0.120664 0.113912 0.120397 0.106423 0.113912 0.105972 0.113555 0.113912 0.120397 0.113555 0.120111 0.120664 0.12621 0.120397 0.125994 0.12621 0.130986 0.125994 0.130802 0.120397 0.125994 0.120111 0.125759 0.125994 0.130802 0.125759 0.130601 0.105972 0.113555 0.105517 0.113187 0.113555 0.120111 0.113187 0.119811 0.105517 0.113187 0.105063 0.112811 0.113187 0.119811 0.112811 0.119498 0.120111 0.125759 0.119811 0.125508 0.125759 0.130601 0.125508 0.130383 0.119811 0.125508 0.119498 0.125243 0.125508 0.130383 0.125243 0.13015 0.130986 0.135074 0.130802 0.134909 0.135074 0.138551 0.134909 0.138394 0.130802 0.134909 0.130601 0.134727 0.134909 0.138394 0.134727 0.138221 0.138551 0.141489 0.138394 0.141331 0.141489 0.143953 0.141331 0.143789 0.138394 0.141331 0.138221 0.14116 0.141331 0.143789 0.14116 0.143613 0.130601 0.134727 0.130383 0.13453 0.134727 0.138221 0.13453 0.138034 0.130383 0.13453 0.13015 0.134318 0.13453 0.138034 0.134318 0.137834 0.138221 0.14116 0.138034 0.140976 0.14116 0.143613 0.140976 0.143426 0.138034 0.140976 0.137834 0.140779 0.140976 0.143426 0.140779 0.143228 0.14496 0.147325 0.144946 0.147267 0.147325 0.149334 0.147267 0.149236 0.144946 0.147267 0.144919 0.147201 0.147267 0.149236 0.147201 0.149133 0.149334 0.151028 0.149236 0.150893 0.151028 0.152445 0.150893 0.152278 0.149236 0.150893 0.149133 0.150756 0.150893 0.152278 0.150756 0.152109 0.144919 0.147201 0.14488 0.147126 0.147201 0.149133 0.147126 0.149023 0.14488 0.147126 0.144828 0.147041 0.147126 0.149023 0.147041 0.148907 0.149133 0.150756 0.149023 0.150614 0.150756 0.152109 0.150614 0.151938 0.149023 0.150614 0.148907 0.150467 0.150614 0.151938 0.150467 0.151763 0.152445 0.153621 0.152278 0.153425 0.153621 0.154591 0.153425 0.15437 0.152278 0.153425 0.152109 0.153229 0.153425 0.15437 0.153229 0.15415 0.154591 0.155385 0.15437 0.155143 0.155385 0.156031 0.155143 0.15577 0.15437 0.155143 0.15415 0.154901 0.155143 0.15577 0.154901 0.15551 0.152109 0.153229 0.151938 0.153031 0.153229 0.15415 0.153031 0.153929 0.151938 0.153031 0.151763 0.152832 0.153031 0.153929 0.152832 0.153707 0.15415 0.154901 0.153929 0.15466 0.154901 0.15551 0.15466 0.155252 0.153929 0.15466 0.153707 0.154419 0.15466 0.155252 0.154419 0.154994 0.144828 0.147041 0.144764 0.146947 0.147041 0.148907 0.146947 0.148783 0.144764 0.146947 0.144686 0.146843 0.146947 0.148783 0.146843 0.148652 0.148907 0.150467 0.148783 0.150316 0.150467 0.151763 0.150316 0.151586 0.148783 0.150316 0.148652 0.150159 0.150316 0.151586 0.150159 0.151405 0.144686 0.146843 0.144595 0.146728 0.146843 0.148652 0.146728 0.148513 0.144595 0.146728 0.144492 0.146604 0.146728 0.148513 0.146604 0.148367 0.148652 0.150159 0.148513 0.149996 0.150159 0.151405 0.149996 0.15122 0.148513 0.149996 0.148367 0.149828 0.149996 0.15122 0.149828 0.15103 0.151763 0.152832 0.151586 0.152631 0.152832 0.153707 0.152631 0.153485 0.151586 0.152631 0.151405 0.152427 0.152631 0.153485 0.152427 0.153261 0.153707 0.154419 0.153485 0.154178 0.154419 0.154994 0.154178 0.154736 0.153485 0.154178 0.153261 0.153935 0.154178 0.154736 0.153935 0.154478 0.151405 0.152427 0.15122 0.152221 0.152427 0.153261 0.152221 0.153035 0.15122 0.152221 0.15103 0.152011 0.152221 0.153035 0.152011 0.152807 0.153261 0.153935 0.153035 0.153692 0.153935 0.154478 0.153692 0.154219 0.153035 0.153692 0.152807 0.153448 0.153692 0.154219 0.153448 0.15396 0.156031 0.156551 0.15577 0.156275 0.156551 0.156969 0.156275 0.15668 0.15577 0.156275 0.15551 0.156 0.156275 0.15668 0.156 0.156392 0.156969 0.157301 0.15668 0.157001 0.157301 0.157564 0.157001 0.157256 0.15668 0.157001 0.156392 0.156704 0.157001 0.157256 0.156704 0.156949 0.15551 0.156 0.155252 0.155727 0.156 0.156392 0.155727 0.156106 0.155252 0.155727 0.154994 0.155454 0.155727 0.156106 0.155454 0.155822 0.156392 0.156704 0.156106 0.156407 0.156704 0.156949 0.156407 0.156644 0.156106 0.156407 0.155822 0.156112 0.156407 0.156644 0.156112 0.156341 0.157564 0.15777 0.157256 0.157455 0.15777 0.15793 0.157455 0.15761 0.157256 0.157455 0.156949 0.157142 0.157455 0.15761 0.157142 0.157292 0.15793 0.158055 0.15761 0.157731 0.158055 0.15815 0.157731 0.157823 0.15761 0.157731 0.157292 0.157408 0.157731 0.157823 0.157408 0.157497 0.156949 0.157142 0.156644 0.15683 0.157142 0.157292 0.15683 0.156974 0.156644 0.15683 0.156341 0.156519 0.15683 0.156974 0.156519 0.156658 0.157292 0.157408 0.156974 0.157086 0.157408 0.157497 0.157086 0.157172 0.156974 0.157086 0.156658 0.156765 0.157086 0.157172 0.156765 0.156847 0.154994 0.155454 0.154736 0.155182 0.155454 0.155822 0.155182 0.155537 0.154736 0.155182 0.154478 0.15491 0.155182 0.155537 0.15491 0.155254 0.155822 0.156112 0.155537 0.155818 0.156112 0.156341 0.155818 0.156038 0.155537 0.155818 0.155254 0.155524 0.155818 0.156038 0.155524 0.155736 0.154478 0.15491 0.154219 0.154638 0.15491 0.155254 0.154638 0.15497 0.154219 0.154638 0.15396 0.154366 0.154638 0.15497 0.154366 0.154687 0.155254 0.155524 0.15497 0.155231 0.155524 0.155736 0.155231 0.155434 0.15497 0.155231 0.154687 0.154938 0.155231 0.155434 0.154938 0.155133 0.156341 0.156519 0.156038 0.15621 0.156519 0.156658 0.15621 0.156343 0.156038 0.15621 0.155736 0.1559 0.15621 0.156343 0.1559 0.156028 0.156658 0.156765 0.156343 0.156445 0.156765 0.156847 0.156445 0.156523 0.156343 0.156445 0.156028 0.156126 0.156445 0.156523 0.156126 0.1562 0.155736 0.1559 0.155434 0.155592 0.1559 0.156028 0.155592 0.155714 0.155434 0.155592 0.155133 0.155284 0.155592 0.155714 0.155284 0.1554 0.156028 0.156126 0.155714 0.155807 0.156126 0.1562 0.155807 0.155878 0.155714 0.155807 0.1554 0.155488 0.155807 0.155878 0.155488 0.155556 0.144492 0.146604 0.144376 0.146469 0.146604 0.148367 0.146469 0.148213 0.144376 0.146469 0.144247 0.146325 0.146469 0.148213 0.146325 0.14805 0.148367 0.149828 0.148213 0.149653 0.149828 0.15103 0.149653 0.150835 0.148213 0.149653 0.14805 0.149472 0.149653 0.150835 0.149472 0.150636 0.144247 0.146325 0.144106 0.14617 0.146325 0.14805 0.14617 0.147879 0.144106 0.14617 0.143953 0.146005 0.14617 0.147879 0.146005 0.1477 0.14805 0.149472 0.147879 0.149285 0.149472 0.150636 0.149285 0.150432 0.147879 0.149285 0.1477 0.149091 0.149285 0.150432 0.149091 0.150222 0.15103 0.152011 0.150835 0.151798 0.152011 0.152807 0.151798 0.152577 0.150835 0.151798 0.150636 0.151581 0.151798 0.152577 0.151581 0.152343 0.152807 0.153448 0.152577 0.153201 0.153448 0.15396 0.153201 0.153699 0.152577 0.153201 0.152343 0.152953 0.153201 0.153699 0.152953 0.153437 0.150636 0.151581 0.150432 0.151361 0.151581 0.152343 0.151361 0.152107 0.150432 0.151361 0.150222 0.151135 0.151361 0.152107 0.151135 0.151867 0.152343 0.152953 0.152107 0.152702 0.152953 0.153437 0.152702 0.153174 0.152107 0.152702 0.151867 0.152449 0.152702 0.153174 0.152449 0.152908 0.143953 0.146005 0.143789 0.14583 0.146005 0.1477 0.14583 0.147513 0.143789 0.14583 0.143613 0.145646 0.14583 0.147513 0.145646 0.147318 0.1477 0.149091 0.147513 0.14889 0.149091 0.150222 0.14889 0.150007 0.147513 0.14889 0.147318 0.148682 0.14889 0.150007 0.148682 0.149785 0.143613 0.145646 0.143426 0.145452 0.145646 0.147318 0.145452 0.147114 0.143426 0.145452 0.143228 0.145249 0.145452 0.147114 0.145249 0.146902 0.147318 0.148682 0.147114 0.148467 0.148682 0.149785 0.148467 0.149559 0.147114 0.148467 0.146902 0.148245 0.148467 0.149559 0.148245 0.149326 0.150222 0.151135 0.150007 0.150906 0.151135 0.151867 0.150906 0.151624 0.150007 0.150906 0.149785 0.150672 0.150906 0.151624 0.150672 0.151377 0.151867 0.152449 0.151624 0.152193 0.152449 0.152908 0.152193 0.152641 0.151624 0.152193 0.151377 0.151935 0.152193 0.152641 0.151935 0.152371 0.149785 0.150672 0.149559 0.150433 0.150672 0.151377 0.150433 0.151127 0.149559 0.150433 0.149326 0.150189 0.150433 0.151127 0.150189 0.150872 0.151377 0.151935 0.151127 0.151673 0.151935 0.152371 0.151673 0.152099 0.151127 0.151673 0.150872 0.151407 0.151673 0.152099 0.151407 0.151824 0.15396 0.154366 0.153699 0.154093 0.154366 0.154687 0.154093 0.154403 0.153699 0.154093 0.153437 0.153819 0.154093 0.154403 0.153819 0.154118 0.154687 0.154938 0.154403 0.154644 0.154938 0.155133 0.154644 0.154832 0.154403 0.154644 0.154118 0.154351 0.154644 0.154832 0.154351 0.15453 0.153437 0.153819 0.153174 0.153544 0.153819 0.154118 0.153544 0.153833 0.153174 0.153544 0.152908 0.153268 0.153544 0.153833 0.153268 0.153547 0.154118 0.154351 0.153833 0.154057 0.154351 0.15453 0.154057 0.154229 0.153833 0.154057 0.153547 0.153762 0.154057 0.154229 0.153762 0.153927 0.155133 0.155284 0.154832 0.154976 0.155284 0.1554 0.154976 0.155086 0.154832 0.154976 0.15453 0.154668 0.154976 0.155086 0.154668 0.154773 0.1554 0.155488 0.155086 0.15517 0.155488 0.155556 0.15517 0.155234 0.155086 0.15517 0.154773 0.154852 0.15517 0.155234 0.154852 0.154912 0.15453 0.154668 0.154229 0.15436 0.154668 0.154773 0.15436 0.15446 0.154229 0.15436 0.153927 0.154052 0.15436 0.15446 0.154052 0.154146 0.154773 0.154852 0.15446 0.154535 0.154852 0.154912 0.154535 0.15459 0.15446 0.154535 0.154146 0.154217 0.154535 0.15459 0.154217 0.154269 0.152908 0.153268 0.152641 0.15299 0.153268 0.153547 0.15299 0.15326 0.152641 0.15299 0.152371 0.15271 0.15299 0.15326 0.15271 0.152971 0.153547 0.153762 0.15326 0.153467 0.153762 0.153927 0.153467 0.153624 0.15326 0.153467 0.152971 0.15317 0.153467 0.153624 0.15317 0.153321 0.152371 0.15271 0.152099 0.152428 0.15271 0.152971 0.152428 0.152681 0.152099 0.152428 0.151824 0.152144 0.152428 0.152681 0.152144 0.152389 0.152971 0.15317 0.152681 0.152872 0.15317 0.153321 0.152872 0.153017 0.152681 0.152872 0.152389 0.152573 0.152872 0.153017 0.152573 0.152712 0.153927 0.154052 0.153624 0.153743 0.154052 0.154146 0.153743 0.153832 0.153624 0.153743 0.153321 0.153434 0.153743 0.153832 0.153434 0.153518 0.154146 0.154217 0.153832 0.153899 0.154217 0.154269 0.153899 0.153947 0.153832 0.153899 0.153518 0.15358 0.153899 0.153947 0.15358 0.153626 0.153321 0.153434 0.153017 0.153124 0.153434 0.153518 0.153124 0.153204 0.153017 0.153124 0.152712 0.152814 0.153124 0.153204 0.152814 0.152889 0.153518 0.15358 0.153204 0.153262 0.15358 0.153626 0.153262 0.153304 0.153204 0.153262 0.152889 0.152943 0.153262 0.153304 0.152943 0.152981 0 0.0162789 0 0.0161283 0.0162789 0.0319227 0.0161283 0.0316196 0 0.0161283 0 0.0159999 0.0161283 0.0316196 0.0159999 0.0313595 0.0319227 0.0469578 0.0316196 0.0465081 0.0469578 0.061156 0.0465081 0.0605972 0.0316196 0.0465081 0.0313595 0.0461157 0.0465081 0.0605972 0.0461157 0.0600988 0 0.0159999 0 0.0158894 0.0159999 0.0313595 0.0158894 0.0311344 0 0.0158894 0 0.0157935 0.0158894 0.0311344 0.0157935 0.0309381 0.0313595 0.0461157 0.0311344 0.0457713 0.0461157 0.0600988 0.0457713 0.0596527 0.0311344 0.0457713 0.0309381 0.0454671 0.0457713 0.0596527 0.0454671 0.0592521 0.061156 0.0741961 0.0605972 0.073593 0.0741961 0.0858634 0.073593 0.0852801 0.0605972 0.073593 0.0600988 0.0730413 0.073593 0.0852801 0.0730413 0.0847322 0.0858634 0.0961236 0.0852801 0.0956001 0.0961236 0.105063 0.0956001 0.104613 0.0852801 0.0956001 0.0847322 0.0950957 0.0956001 0.104613 0.0950957 0.104169 0.0600988 0.0730413 0.0596527 0.0725362 0.0730413 0.0847322 0.0725362 0.0842185 0.0596527 0.0725362 0.0592521 0.0720734 0.0725362 0.0842185 0.0720734 0.0837372 0.0847322 0.0950957 0.0842185 0.0946114 0.0950957 0.104169 0.0946114 0.103733 0.0842185 0.0946114 0.0837372 0.0941476 0.0946114 0.103733 0.0941476 0.103307 0 0.0157935 0 0.0157093 0.0157935 0.0309381 0.0157093 0.0307653 0 0.0157093 0 0.0156348 0.0157093 0.0307653 0.0156348 0.0306119 0.0309381 0.0454671 0.0307653 0.0451968 0.0454671 0.0592521 0.0451968 0.0588908 0.0307653 0.0451968 0.0306119 0.0449551 0.0451968 0.0588908 0.0449551 0.0585639 0 0.0156348 0 0.0155681 0.0156348 0.0306119 0.0155681 0.0304746 0 0.0155681 0 0.0155078 0.0155681 0.0304746 0.01550