# vtk DataFile Version 3.0
#This file was generated by the deal.II library on 2022/1/6 at 22:48:16
ASCII
DATASET UNSTRUCTURED_GRID

POINTS 16384 double
0 0 0
0.1875 0 0
0 0.046875 0
0.1875 0.046875 0
0.1875 0 0
0.375 0 0
0.1875 0.046875 0
0.375 0.046875 0
0 0.046875 0
0.1875 0.046875 0
0 0.09375 0
0.1875 0.09375 0
0.1875 0.046875 0
0.375 0.046875 0
0.1875 0.09375 0
0.375 0.09375 0
0.375 0 0
0.5625 0 0
0.375 0.046875 0
0.5625 0.046875 0
0.5625 0 0
0.75 0 0
0.5625 0.046875 0
0.75 0.046875 0
0.375 0.046875 0
0.5625 0.046875 0
0.375 0.09375 0
0.5625 0.09375 0
0.5625 0.046875 0
0.75 0.046875 0
0.5625 0.09375 0
0.75 0.09375 0
0 0.09375 0
0.1875 0.09375 0
0 0.140625 0
0.1875 0.140625 0
0.1875 0.09375 0
0.375 0.09375 0
0.1875 0.140625 0
0.375 0.140625 0
0 0.140625 0
0.1875 0.140625 0
0 0.1875 0
0.1875 0.1875 0
0.1875 0.140625 0
0.375 0.140625 0
0.1875 0.1875 0
0.375 0.1875 0
0.375 0.09375 0
0.5625 0.09375 0
0.375 0.140625 0
0.5625 0.140625 0
0.5625 0.09375 0
0.75 0.09375 0
0.5625 0.140625 0
0.75 0.140625 0
0.375 0.140625 0
0.5625 0.140625 0
0.375 0.1875 0
0.5625 0.1875 0
0.5625 0.140625 0
0.75 0.140625 0
0.5625 0.1875 0
0.75 0.1875 0
0.75 0 0
0.9375 0 0
0.75 0.046875 0
0.9375 0.046875 0
0.9375 0 0
1.125 0 0
0.9375 0.046875 0
1.125 0.046875 0
0.75 0.046875 0
0.9375 0.046875 0
0.75 0.09375 0
0.9375 0.09375 0
0.9375 0.046875 0
1.125 0.046875 0
0.9375 0.09375 0
1.125 0.09375 0
1.125 0 0
1.3125 0 0
1.125 0.046875 0
1.3125 0.046875 0
1.3125 0 0
1.5 0 0
1.3125 0.046875 0
1.5 0.046875 0
1.125 0.046875 0
1.3125 0.046875 0
1.125 0.09375 0
1.3125 0.09375 0
1.3125 0.046875 0
1.5 0.046875 0
1.3125 0.09375 0
1.5 0.09375 0
0.75 0.09375 0
0.9375 0.09375 0
0.75 0.140625 0
0.9375 0.140625 0
0.9375 0.09375 0
1.125 0.09375 0
0.9375 0.140625 0
1.125 0.140625 0
0.75 0.140625 0
0.9375 0.140625 0
0.75 0.1875 0
0.9375 0.1875 0
0.9375 0.140625 0
1.125 0.140625 0
0.9375 0.1875 0
1.125 0.1875 0
1.125 0.09375 0
1.3125 0.09375 0
1.125 0.140625 0
1.3125 0.140625 0
1.3125 0.09375 0
1.5 0.09375 0
1.3125 0.140625 0
1.5 0.140625 0
1.125 0.140625 0
1.3125 0.140625 0
1.125 0.1875 0
1.3125 0.1875 0
1.3125 0.140625 0
1.5 0.140625 0
1.3125 0.1875 0
1.5 0.1875 0
0 0.1875 0
0.1875 0.1875 0
0 0.234375 0
0.1875 0.234375 0
0.1875 0.1875 0
0.375 0.1875 0
0.1875 0.234375 0
0.375 0.234375 0
0 0.234375 0
0.1875 0.234375 0
0 0.28125 0
0.1875 0.28125 0
0.1875 0.234375 0
0.375 0.234375 0
0.1875 0.28125 0
0.375 0.28125 0
0.375 0.1875 0
0.5625 0.1875 0
0.375 0.234375 0
0.5625 0.234375 0
0.5625 0.1875 0
0.75 0.1875 0
0.5625 0.234375 0
0.75 0.234375 0
0.375 0.234375 0
0.5625 0.234375 0
0.375 0.28125 0
0.5625 0.28125 0
0.5625 0.234375 0
0.75 0.234375 0
0.5625 0.28125 0
0.75 0.28125 0
0 0.28125 0
0.1875 0.28125 0
0 0.328125 0
0.1875 0.328125 0
0.1875 0.28125 0
0.375 0.28125 0
0.1875 0.328125 0
0.375 0.328125 0
0 0.328125 0
0.1875 0.328125 0
0 0.375 0
0.1875 0.375 0
0.1875 0.328125 0
0.375 0.328125 0
0.1875 0.375 0
0.375 0.375 0
0.375 0.28125 0
0.5625 0.28125 0
0.375 0.328125 0
0.5625 0.328125 0
0.5625 0.28125 0
0.75 0.28125 0
0.5625 0.328125 0
0.75 0.328125 0
0.375 0.328125 0
0.5625 0.328125 0
0.375 0.375 0
0.5625 0.375 0
0.5625 0.328125 0
0.75 0.328125 0
0.5625 0.375 0
0.75 0.375 0
0.75 0.1875 0
0.9375 0.1875 0
0.75 0.234375 0
0.9375 0.234375 0
0.9375 0.1875 0
1.125 0.1875 0
0.9375 0.234375 0
1.125 0.234375 0
0.75 0.234375 0
0.9375 0.234375 0
0.75 0.28125 0
0.9375 0.28125 0
0.9375 0.234375 0
1.125 0.234375 0
0.9375 0.28125 0
1.125 0.28125 0
1.125 0.1875 0
1.3125 0.1875 0
1.125 0.234375 0
1.3125 0.234375 0
1.3125 0.1875 0
1.5 0.1875 0
1.3125 0.234375 0
1.5 0.234375 0
1.125 0.234375 0
1.3125 0.234375 0
1.125 0.28125 0
1.3125 0.28125 0
1.3125 0.234375 0
1.5 0.234375 0
1.3125 0.28125 0
1.5 0.28125 0
0.75 0.28125 0
0.9375 0.28125 0
0.75 0.328125 0
0.9375 0.328125 0
0.9375 0.28125 0
1.125 0.28125 0
0.9375 0.328125 0
1.125 0.328125 0
0.75 0.328125 0
0.9375 0.328125 0
0.75 0.375 0
0.9375 0.375 0
0.9375 0.328125 0
1.125 0.328125 0
0.9375 0.375 0
1.125 0.375 0
1.125 0.28125 0
1.3125 0.28125 0
1.125 0.328125 0
1.3125 0.328125 0
1.3125 0.28125 0
1.5 0.28125 0
1.3125 0.328125 0
1.5 0.328125 0
1.125 0.328125 0
1.3125 0.328125 0
1.125 0.375 0
1.3125 0.375 0
1.3125 0.328125 0
1.5 0.328125 0
1.3125 0.375 0
1.5 0.375 0
1.5 0 0
1.6875 0 0
1.5 0.046875 0
1.6875 0.046875 0
1.6875 0 0
1.875 0 0
1.6875 0.046875 0
1.875 0.046875 0
1.5 0.046875 0
1.6875 0.046875 0
1.5 0.09375 0
1.6875 0.09375 0
1.6875 0.046875 0
1.875 0.046875 0
1.6875 0.09375 0
1.875 0.09375 0
1.875 0 0
2.0625 0 0
1.875 0.046875 0
2.0625 0.046875 0
2.0625 0 0
2.25 0 0
2.0625 0.046875 0
2.25 0.046875 0
1.875 0.046875 0
2.0625 0.046875 0
1.875 0.09375 0
2.0625 0.09375 0
2.0625 0.046875 0
2.25 0.046875 0
2.0625 0.09375 0
2.25 0.09375 0
1.5 0.09375 0
1.6875 0.09375 0
1.5 0.140625 0
1.6875 0.140625 0
1.6875 0.09375 0
1.875 0.09375 0
1.6875 0.140625 0
1.875 0.140625 0
1.5 0.140625 0
1.6875 0.140625 0
1.5 0.1875 0
1.6875 0.1875 0
1.6875 0.140625 0
1.875 0.140625 0
1.6875 0.1875 0
1.875 0.1875 0
1.875 0.09375 0
2.0625 0.09375 0
1.875 0.140625 0
2.0625 0.140625 0
2.0625 0.09375 0
2.25 0.09375 0
2.0625 0.140625 0
2.25 0.140625 0
1.875 0.140625 0
2.0625 0.140625 0
1.875 0.1875 0
2.0625 0.1875 0
2.0625 0.140625 0
2.25 0.140625 0
2.0625 0.1875 0
2.25 0.1875 0
2.25 0 0
2.4375 0 0
2.25 0.046875 0
2.4375 0.046875 0
2.4375 0 0
2.625 0 0
2.4375 0.046875 0
2.625 0.046875 0
2.25 0.046875 0
2.4375 0.046875 0
2.25 0.09375 0
2.4375 0.09375 0
2.4375 0.046875 0
2.625 0.046875 0
2.4375 0.09375 0
2.625 0.09375 0
2.625 0 0
2.8125 0 0
2.625 0.046875 0
2.8125 0.046875 0
2.8125 0 0
3 0 0
2.8125 0.046875 0
3 0.046875 0
2.625 0.046875 0
2.8125 0.046875 0
2.625 0.09375 0
2.8125 0.09375 0
2.8125 0.046875 0
3 0.046875 0
2.8125 0.09375 0
3 0.09375 0
2.25 0.09375 0
2.4375 0.09375 0
2.25 0.140625 0
2.4375 0.140625 0
2.4375 0.09375 0
2.625 0.09375 0
2.4375 0.140625 0
2.625 0.140625 0
2.25 0.140625 0
2.4375 0.140625 0
2.25 0.1875 0
2.4375 0.1875 0
2.4375 0.140625 0
2.625 0.140625 0
2.4375 0.1875 0
2.625 0.1875 0
2.625 0.09375 0
2.8125 0.09375 0
2.625 0.140625 0
2.8125 0.140625 0
2.8125 0.09375 0
3 0.09375 0
2.8125 0.140625 0
3 0.140625 0
2.625 0.140625 0
2.8125 0.140625 0
2.625 0.1875 0
2.8125 0.1875 0
2.8125 0.140625 0
3 0.140625 0
2.8125 0.1875 0
3 0.1875 0
1.5 0.1875 0
1.6875 0.1875 0
1.5 0.234375 0
1.6875 0.234375 0
1.6875 0.1875 0
1.875 0.1875 0
1.6875 0.234375 0
1.875 0.234375 0
1.5 0.234375 0
1.6875 0.234375 0
1.5 0.28125 0
1.6875 0.28125 0
1.6875 0.234375 0
1.875 0.234375 0
1.6875 0.28125 0
1.875 0.28125 0
1.875 0.1875 0
2.0625 0.1875 0
1.875 0.234375 0
2.0625 0.234375 0
2.0625 0.1875 0
2.25 0.1875 0
2.0625 0.234375 0
2.25 0.234375 0
1.875 0.234375 0
2.0625 0.234375 0
1.875 0.28125 0
2.0625 0.28125 0
2.0625 0.234375 0
2.25 0.234375 0
2.0625 0.28125 0
2.25 0.28125 0
1.5 0.28125 0
1.6875 0.28125 0
1.5 0.328125 0
1.6875 0.328125 0
1.6875 0.28125 0
1.875 0.28125 0
1.6875 0.328125 0
1.875 0.328125 0
1.5 0.328125 0
1.6875 0.328125 0
1.5 0.375 0
1.6875 0.375 0
1.6875 0.328125 0
1.875 0.328125 0
1.6875 0.375 0
1.875 0.375 0
1.875 0.28125 0
2.0625 0.28125 0
1.875 0.328125 0
2.0625 0.328125 0
2.0625 0.28125 0
2.25 0.28125 0
2.0625 0.328125 0
2.25 0.328125 0
1.875 0.328125 0
2.0625 0.328125 0
1.875 0.375 0
2.0625 0.375 0
2.0625 0.328125 0
2.25 0.328125 0
2.0625 0.375 0
2.25 0.375 0
2.25 0.1875 0
2.4375 0.1875 0
2.25 0.234375 0
2.4375 0.234375 0
2.4375 0.1875 0
2.625 0.1875 0
2.4375 0.234375 0
2.625 0.234375 0
2.25 0.234375 0
2.4375 0.234375 0
2.25 0.28125 0
2.4375 0.28125 0
2.4375 0.234375 0
2.625 0.234375 0
2.4375 0.28125 0
2.625 0.28125 0
2.625 0.1875 0
2.8125 0.1875 0
2.625 0.234375 0
2.8125 0.234375 0
2.8125 0.1875 0
3 0.1875 0
2.8125 0.234375 0
3 0.234375 0
2.625 0.234375 0
2.8125 0.234375 0
2.625 0.28125 0
2.8125 0.28125 0
2.8125 0.234375 0
3 0.234375 0
2.8125 0.28125 0
3 0.28125 0
2.25 0.28125 0
2.4375 0.28125 0
2.25 0.328125 0
2.4375 0.328125 0
2.4375 0.28125 0
2.625 0.28125 0
2.4375 0.328125 0
2.625 0.328125 0
2.25 0.328125 0
2.4375 0.328125 0
2.25 0.375 0
2.4375 0.375 0
2.4375 0.328125 0
2.625 0.328125 0
2.4375 0.375 0
2.625 0.375 0
2.625 0.28125 0
2.8125 0.28125 0
2.625 0.328125 0
2.8125 0.328125 0
2.8125 0.28125 0
3 0.28125 0
2.8125 0.328125 0
3 0.328125 0
2.625 0.328125 0
2.8125 0.328125 0
2.625 0.375 0
2.8125 0.375 0
2.8125 0.328125 0
3 0.328125 0
2.8125 0.375 0
3 0.375 0
0 0.375 0
0.1875 0.375 0
0 0.421875 0
0.1875 0.421875 0
0.1875 0.375 0
0.375 0.375 0
0.1875 0.421875 0
0.375 0.421875 0
0 0.421875 0
0.1875 0.421875 0
0 0.46875 0
0.1875 0.46875 0
0.1875 0.421875 0
0.375 0.421875 0
0.1875 0.46875 0
0.375 0.46875 0
0.375 0.375 0
0.5625 0.375 0
0.375 0.421875 0
0.5625 0.421875 0
0.5625 0.375 0
0.75 0.375 0
0.5625 0.421875 0
0.75 0.421875 0
0.375 0.421875 0
0.5625 0.421875 0
0.375 0.46875 0
0.5625 0.46875 0
0.5625 0.421875 0
0.75 0.421875 0
0.5625 0.46875 0
0.75 0.46875 0
0 0.46875 0
0.1875 0.46875 0
0 0.515625 0
0.1875 0.515625 0
0.1875 0.46875 0
0.375 0.46875 0
0.1875 0.515625 0
0.375 0.515625 0
0 0.515625 0
0.1875 0.515625 0
0 0.5625 0
0.1875 0.5625 0
0.1875 0.515625 0
0.375 0.515625 0
0.1875 0.5625 0
0.375 0.5625 0
0.375 0.46875 0
0.5625 0.46875 0
0.375 0.515625 0
0.5625 0.515625 0
0.5625 0.46875 0
0.75 0.46875 0
0.5625 0.515625 0
0.75 0.515625 0
0.375 0.515625 0
0.5625 0.515625 0
0.375 0.5625 0
0.5625 0.5625 0
0.5625 0.515625 0
0.75 0.515625 0
0.5625 0.5625 0
0.75 0.5625 0
0.75 0.375 0
0.9375 0.375 0
0.75 0.421875 0
0.9375 0.421875 0
0.9375 0.375 0
1.125 0.375 0
0.9375 0.421875 0
1.125 0.421875 0
0.75 0.421875 0
0.9375 0.421875 0
0.75 0.46875 0
0.9375 0.46875 0
0.9375 0.421875 0
1.125 0.421875 0
0.9375 0.46875 0
1.125 0.46875 0
1.125 0.375 0
1.3125 0.375 0
1.125 0.421875 0
1.3125 0.421875 0
1.3125 0.375 0
1.5 0.375 0
1.3125 0.421875 0
1.5 0.421875 0
1.125 0.421875 0
1.3125 0.421875 0
1.125 0.46875 0
1.3125 0.46875 0
1.3125 0.421875 0
1.5 0.421875 0
1.3125 0.46875 0
1.5 0.46875 0
0.75 0.46875 0
0.9375 0.46875 0
0.75 0.515625 0
0.9375 0.515625 0
0.9375 0.46875 0
1.125 0.46875 0
0.9375 0.515625 0
1.125 0.515625 0
0.75 0.515625 0
0.9375 0.515625 0
[...]
POINT_DATA 16384
SCALARS x_displacement double 1
LOOKUP_TABLE default
0 0.0328276 0 0.0294483 0.0328276 0.0577371 0.0294483 0.056243 0 0.0294483 0 0.0271247 0.0294483 0.056243 0.0271247 0.0536291 0.0577371 0.0729145 0.056243 0.0717857 0.0729145 0.0781786 0.0717857 0.0775289 0.056243 0.0717857 0.0536291 0.0699488 0.0717857 0.0775289 0.0699488 0.0764219 0 0.0271247 0 0.0252047 0.0271247 0.0536291 0.0252047 0.050196 0 0.0252047 0 0.0235857 0.0252047 0.050196 0.0235857 0.0466844 0.0536291 0.0699488 0.050196 0.0673058 0.0699488 0.0764219 0.0673058 0.0748965 0.050196 0.0673058 0.0466844 0.0637099 0.0673058 0.0748965 0.0637099 0.0730855 0.0781786 0.0828926 0.0775289 0.0826839 0.0828926 0.0880413 0.0826839 0.088148 0.0775289 0.0826839 0.0764219 0.082226 0.0826839 0.088148 0.082226 0.0880645 0.0880413 0.0931831 0.088148 0.0934057 0.0931831 0.0979744 0.0934057 0.098234 0.088148 0.0934057 0.0880645 0.0934956 0.0934057 0.098234 0.0934956 0.0983943 0.0764219 0.082226 0.0748965 0.08156 0.082226 0.0880645 0.08156 0.0878194 0.0748965 0.08156 0.0730855 0.0807334 0.08156 0.0878194 0.0807334 0.0874348 0.0880645 0.0934956 0.0878194 0.0934628 0.0934956 0.0983943 0.0934628 0.0984625 0.0878194 0.0934628 0.0874348 0.0933216 0.0934628 0.0984625 0.0933216 0.0984456 0 0.0235857 0 0.0222118 0.0235857 0.0466844 0.0222118 0.0433882 0 0.0222118 0 0.0210009 0.0222118 0.0433882 0.0210009 0.0407774 0.0466844 0.0637099 0.0433882 0.0600429 0.0637099 0.0730855 0.0600429 0.0712255 0.0433882 0.0600429 0.0407774 0.0571106 0.0600429 0.0712255 0.0571106 0.0693533 0 0.0210009 0 0.0199796 0.0210009 0.0407774 0.0199796 0.0387085 0 0.0199796 0 0.0191385 0.0199796 0.0387085 0.0191385 0.0370612 0.0407774 0.0571106 0.0387085 0.0547704 0.0571106 0.0693533 0.0547704 0.067597 0.0387085 0.0547704 0.0370612 0.0528615 0.0547704 0.067597 0.0528615 0.0660063 0.0730855 0.0807334 0.0712255 0.0797698 0.0807334 0.0874348 0.0797698 0.0869391 0.0712255 0.0797698 0.0693533 0.0787271 0.0797698 0.0869391 0.0787271 0.086354 0.0874348 0.0933216 0.0869391 0.0930854 0.0933216 0.0984456 0.0930854 0.0983518 0.0869391 0.0930854 0.086354 0.0927685 0.0930854 0.0983518 0.0927685 0.0981894 0.0693533 0.0787271 0.067597 0.0776392 0.0787271 0.086354 0.0776392 0.0857041 0.067597 0.0776392 0.0660063 0.0765481 0.0776392 0.0857041 0.0765481 0.0850092 0.086354 0.0927685 0.0857041 0.0923846 0.0927685 0.0981894 0.0923846 0.097967 0.0857041 0.0923846 0.0850092 0.0919472 0.0923846 0.097967 0.0919472 0.097693 0.0979744 0.102286 0.098234 0.102537 0.102286 0.106078 0.102537 0.106295 0.098234 0.102537 0.0983943 0.102714 0.102537 0.106295 0.102714 0.106455 0.106078 0.109358 0.106295 0.109524 0.109358 0.112153 0.109524 0.112261 0.106295 0.109524 0.106455 0.109648 0.109524 0.112261 0.109648 0.112338 0.0983943 0.102714 0.0984625 0.10282 0.102714 0.106455 0.10282 0.106561 0.0984625 0.10282 0.0984456 0.102859 0.10282 0.106561 0.102859 0.106614 0.106455 0.109648 0.106561 0.10973 0.109648 0.112338 0.10973 0.112384 0.106561 0.10973 0.106614 0.109773 0.10973 0.112384 0.109773 0.112401 0.112153 0.114506 0.112261 0.114553 0.114506 0.116464 0.114553 0.116452 0.112261 0.114553 0.112338 0.114578 0.114553 0.116452 0.114578 0.116425 0.116464 0.118077 0.116452 0.118009 0.118077 0.119393 0.118009 0.119275 0.116452 0.118009 0.116425 0.117933 0.118009 0.119275 0.117933 0.119152 0.112338 0.114578 0.112384 0.114582 0.114578 0.116425 0.114582 0.116384 0.112384 0.114582 0.112401 0.114564 0.114582 0.116384 0.114564 0.116328 0.116425 0.117933 0.116384 0.117847 0.117933 0.119152 0.117847 0.119025 0.116384 0.117847 0.116328 0.117751 0.117847 0.119025 0.117751 0.118891 0.0984456 0.102859 0.0983518 0.102836 0.102859 0.106614 0.102836 0.10662 0.0983518 0.102836 0.0981894 0.102758 0.102836 0.10662 0.102758 0.10658 0.106614 0.109773 0.10662 0.109779 0.109773 0.112401 0.109779 0.11239 0.10662 0.109779 0.10658 0.109748 0.109779 0.11239 0.109748 0.11235 0.0981894 0.102758 0.097967 0.102628 0.102758 0.10658 0.102628 0.106497 0.097967 0.102628 0.097693 0.102453 0.102628 0.106497 0.102453 0.106377 0.10658 0.109748 0.106497 0.109684 0.109748 0.11235 0.109684 0.112284 0.106497 0.109684 0.106377 0.109588 0.109684 0.112284 0.109588 0.112193 0.112401 0.114564 0.11239 0.114526 0.114564 0.116328 0.114526 0.116256 0.11239 0.114526 0.11235 0.114466 0.114526 0.116256 0.114466 0.116169 0.116328 0.117751 0.116256 0.117645 0.117751 0.118891 0.117645 0.118751 0.116256 0.117645 0.116169 0.117529 0.117645 0.118751 0.117529 0.118604 0.11235 0.114466 0.112284 0.114386 0.114466 0.116169 0.114386 0.116067 0.112284 0.114386 0.112193 0.114286 0.114386 0.116067 0.114286 0.115951 0.116169 0.117529 0.116067 0.117401 0.117529 0.118604 0.117401 0.11845 0.116067 0.117401 0.115951 0.117263 0.117401 0.11845 0.117263 0.118287 0 0.0191385 0 0.0184541 0.0191385 0.0370612 0.0184541 0.0357409 0 0.0184541 0 0.0178995 0.0184541 0.0357409 0.0178995 0.0346753 0.0370612 0.0528615 0.0357409 0.0512845 0.0528615 0.0660063 0.0512845 0.0645863 0.0357409 0.0512845 0.0346753 0.0499703 0.0512845 0.0645863 0.0499703 0.0633273 0 0.0178995 0 0.0174499 0.0178995 0.0346753 0.0174499 0.0338093 0 0.0174499 0 0.0170841 0.0174499 0.0338093 0.0170841 0.0331006 0.0346753 0.0499703 0.0338093 0.0488678 0.0499703 0.0633273 0.0488678 0.0622142 0.0338093 0.0488678 0.0331006 0.0479373 0.0488678 0.0622142 0.0479373 0.0612313 0.0660063 0.0765481 0.0645863 0.0754869 0.0765481 0.0850092 0.0754869 0.0842881 0.0645863 0.0754869 0.0633273 0.074476 0.0754869 0.0842881 0.074476 0.0835581 0.0850092 0.0919472 0.0842881 0.0914688 0.0919472 0.097693 0.0914688 0.0973757 0.0842881 0.0914688 0.0835581 0.0909607 0.0914688 0.0973757 0.0909607 0.0970229 0.0633273 0.074476 0.0622142 0.0735266 0.074476 0.0835581 0.0735266 0.0828332 0.0622142 0.0735266 0.0612313 0.0726432 0.0735266 0.0828332 0.0726432 0.0821241 0.0835581 0.0909607 0.0828332 0.090433 0.0909607 0.0970229 0.090433 0.0966418 0.0828332 0.090433 0.0821241 0.0898947 0.090433 0.0966418 0.0898947 0.0962392 0 0.0170841 0 0.0167848 0.0170841 0.0331006 0.0167848 0.0325163 0 0.0167848 0 0.0165383 0.0167848 0.0325163 0.0165383 0.032031 0.0331006 0.0479373 0.0325163 0.0471476 0.0479373 0.0612313 0.0471476 0.0603629 0.0325163 0.0471476 0.032031 0.0464736 0.0471476 0.0603629 0.0464736 0.0595949 0 0.0165383 0 0.0163336 0.0165383 0.032031 0.0163336 0.0316246 0 0.0163336 0 0.0161622 0.0163336 0.0316246 0.0161622 0.0312817 0.032031 0.0464736 0.0316246 0.0458953 0.0464736 0.0595949 0.0458953 0.0589145 0.0316246 0.0458953 0.0312817 0.0453962 0.0458953 0.0589145 0.0453962 0.0583102 0.0612313 0.0726432 0.0603629 0.0718265 0.0726432 0.0821241 0.0718265 0.0814383 0.0603629 0.0718265 0.0595949 0.0710745 0.0718265 0.0814383 0.0710745 0.0807808 0.0821241 0.0898947 0.0814383 0.0893536 0.0898947 0.0962392 0.0893536 0.0958212 0.0814383 0.0893536 0.0807808 0.0888158 0.0893536 0.0958212 0.0888158 0.095393 0.0595949 0.0710745 0.0589145 0.070384 0.0710745 0.0807808 0.070384 0.0801546 0.0589145 0.070384 0.0583102 0.0697509 0.070384 0.0801546 0.0697509 0.0795611 0.0807808 0.0888158 0.0801546 0.0882863 0.0888158 0.095393 0.0882863 0.0949594 0.0801546 0.0882863 0.0795611 0.0877688 0.0882863 0.0949594 0.0877688 0.0945243 0.097693 0.102453 0.0973757 0.102237 0.102453 0.106377 0.102237 0.106221 0.0973757 0.102237 0.0970229 0.101987 0.102237 0.106221 0.101987 0.106034 0.106377 0.109588 0.106221 0.109463 0.109588 0.112193 0.109463 0.112078 0.106221 0.109463 0.106034 0.109311 0.109463 0.112078 0.109311 0.111941 0.0970229 0.101987 0.0966418 0.101707 0.101987 0.106034 0.101707 0.10582 0.0966418 0.101707 0.0962392 0.101402 0.101707 0.10582 0.101402 0.10558 0.106034 0.109311 0.10582 0.109135 0.109311 0.111941 0.109135 0.111783 0.10582 0.109135 0.10558 0.108936 0.109135 0.111783 0.108936 0.111605 0.112193 0.114286 0.112078 0.114167 0.114286 0.115951 0.114167 0.11582 0.112078 0.114167 0.111941 0.11403 0.114167 0.11582 0.11403 0.115674 0.115951 0.117263 0.11582 0.117114 0.117263 0.118287 0.117114 0.118118 0.11582 0.117114 0.115674 0.116954 0.117114 0.118118 0.116954 0.11794 0.111941 0.11403 0.111783 0.113877 0.11403 0.115674 0.113877 0.115515 0.111783 0.113877 0.111605 0.113706 0.113877 0.115515 0.113706 0.115342 0.115674 0.116954 0.115515 0.116783 0.116954 0.11794 0.116783 0.117754 0.115515 0.116783 0.115342 0.116602 0.116783 0.117754 0.116602 0.117559 0.0962392 0.101402 0.0958212 0.101077 0.101402 0.10558 0.101077 0.10532 0.0958212 0.101077 0.095393 0.100736 0.101077 0.10532 0.100736 0.105041 0.10558 0.108936 0.10532 0.108717 0.108936 0.111605 0.108717 0.11141 0.10532 0.108717 0.105041 0.10848 0.108717 0.11141 0.10848 0.111198 0.095393 0.100736 0.0949594 0.100382 0.100736 0.105041 0.100382 0.104748 0.0949594 0.100382 0.0945243 0.100019 0.100382 0.104748 0.100019 0.104441 0.105041 0.10848 0.104748 0.108228 0.10848 0.111198 0.108228 0.110971 0.104748 0.108228 0.104441 0.107961 0.108228 0.110971 0.107961 0.110731 0.111605 0.113706 0.11141 0.113521 0.113706 0.115342 0.113521 0.115157 0.11141 0.113521 0.111198 0.113321 0.113521 0.115157 0.113321 0.11496 0.115342 0.116602 0.115157 0.11641 0.116602 0.117559 0.11641 0.117357 0.115157 0.11641 0.11496 0.116208 0.11641 0.117357 0.116208 0.117146 0.111198 0.113321 0.110971 0.113108 0.113321 0.11496 0.113108 0.114751 0.110971 0.113108 0.110731 0.112883 0.113108 0.114751 0.112883 0.114531 0.11496 0.116208 0.114751 0.115997 0.116208 0.117146 0.115997 0.116928 0.114751 0.115997 0.114531 0.115776 0.115997 0.116928 0.115776 0.116702 0.119393 0.120456 0.119275 0.120294 0.120456 0.121308 0.120294 0.121108 0.119275 0.120294 0.119152 0.12013 0.120294 0.121108 0.12013 0.120909 0.121308 0.121984 0.121108 0.121753 0.121984 0.122517 0.121753 0.12226 0.121108 0.121753 0.120909 0.121523 0.121753 0.12226 0.121523 0.122005 0.119152 0.12013 0.119025 0.119965 0.12013 0.120909 0.119965 0.120709 0.119025 0.119965 0.118891 0.119796 0.119965 0.120709 0.119796 0.12051 0.120909 0.121523 0.120709 0.121295 0.121523 0.122005 0.121295 0.121753 0.120709 0.121295 0.12051 0.121068 0.121295 0.121753 0.121068 0.121503 0.122517 0.122933 0.12226 0.122655 0.122933 0.123256 0.122655 0.122962 0.12226 0.122655 0.122005 0.12238 0.122655 0.122962 0.12238 0.122671 0.123256 0.123505 0.122962 0.123198 0.123505 0.123694 0.123198 0.123378 0.122962 0.123198 0.122671 0.122894 0.123198 0.123378 0.122894 0.123064 0.122005 0.12238 0.121753 0.122108 0.12238 0.122671 0.122108 0.122383 0.121753 0.122108 0.121503 0.121838 0.122108 0.122383 0.121838 0.122097 0.122671 0.122894 0.122383 0.122593 0.122894 0.123064 0.122593 0.122753 0.122383 0.122593 0.122097 0.122295 0.122593 0.122753 0.122295 0.122445 0.118891 0.119796 0.118751 0.119624 0.119796 0.12051 0.119624 0.120308 0.118751 0.119624 0.118604 0.119448 0.119624 0.120308 0.119448 0.120105 0.12051 0.121068 0.120308 0.120841 0.121068 0.121503 0.120841 0.121253 0.120308 0.120841 0.120105 0.120613 0.120841 0.121253 0.120613 0.121004 0.118604 0.119448 0.11845 0.119267 0.119448 0.120105 0.119267 0.119899 0.11845 0.119267 0.118287 0.119081 0.119267 0.119899 0.119081 0.11969 0.120105 0.120613 0.119899 0.120384 0.120613 0.121004 0.120384 0.120755 0.119899 0.120384 0.11969 0.120154 0.120384 0.120755 0.120154 0.120505 0.121503 0.121838 0.121253 0.12157 0.121838 0.122097 0.12157 0.121813 0.121253 0.12157 0.121004 0.121303 0.12157 0.121813 0.121303 0.121531 0.122097 0.122295 0.121813 0.121998 0.122295 0.122445 0.121998 0.122138 0.121813 0.121998 0.121531 0.121703 0.121998 0.122138 0.121703 0.121833 0.121004 0.121303 0.120755 0.121037 0.121303 0.121531 0.121037 0.121249 0.120755 0.121037 0.120505 0.12077 0.121037 0.121249 0.12077 0.120969 0.121531 0.121703 0.121249 0.12141 0.121703 0.121833 0.12141 0.12153 0.121249 0.12141 0.120969 0.121117 0.12141 0.12153 0.121117 0.121227 0.123694 0.123837 0.123378 0.123514 0.123837 0.123945 0.123514 0.123616 0.123378 0.123514 0.123064 0.123193 0.123514 0.123616 0.123193 0.12329 0.123945 0.124024 0.123616 0.123693 0.124024 0.124083 0.123693 0.123749 0.123616 0.123693 0.12329 0.123363 0.123693 0.123749 0.123363 0.123416 0.123064 0.123193 0.122753 0.122875 0.123193 0.12329 0.122875 0.122966 0.122753 0.122875 0.122445 0.122559 0.122875 0.122966 0.122559 0.122644 0.12329 0.123363 0.122966 0.123035 0.123363 0.123416 0.123035 0.123085 0.122966 0.123035 0.122644 0.122708 0.123035 0.123085 0.122708 0.122756 0.124083 0.124125 0.123749 0.12379 0.124125 0.124155 0.12379 0.123819 0.123749 0.12379 0.123416 0.123455 0.12379 0.123819 0.123455 0.123484 0.124155 0.124176 0.123819 0.12384 0.124176 0.124191 0.12384 0.123854 0.123819 0.12384 0.123484 0.123504 0.12384 0.123854 0.123504 0.123518 0.123416 0.123455 0.123085 0.123122 0.123455 0.123484 0.123122 0.123149 0.123085 0.123122 0.122756 0.122791 0.123122 0.123149 0.122791 0.122816 0.123484 0.123504 0.123149 0.123169 0.123504 0.123518 0.123169 0.123182 0.123149 0.123169 0.122816 0.122834 0.123169 0.123182 0.122834 0.122847 0.122445 0.122559 0.122138 0.122244 0.122559 0.122644 0.122244 0.122324 0.122138 0.122244 0.121833 0.121931 0.122244 0.122324 0.121931 0.122005 0.122644 0.122708 0.122324 0.122383 0.122708 0.122756 0.122383 0.122427 0.122324 0.122383 0.122005 0.122059 0.122383 0.122427 0.122059 0.1221 0.121833 0.121931 0.12153 0.12162 0.121931 0.122005 0.12162 0.121687 0.12153 0.12162 0.121227 0.121309 0.12162 0.121687 0.121309 0.12137 0.122005 0.122059 0.121687 0.121736 0.122059 0.1221 0.121736 0.121773 0.121687 0.121736 0.12137 0.121415 0.121736 0.121773 0.121415 0.121448 0.122756 0.122791 0.122427 0.12246 0.122791 0.122816 0.12246 0.122483 0.122427 0.12246 0.1221 0.122129 0.12246 0.122483 0.122129 0.122151 0.122816 0.122834 0.122483 0.1225 0.122834 0.122847 0.1225 0.122512 0.122483 0.1225 0.122151 0.122167 0.1225 0.122512 0.122167 0.122178 0.1221 0.122129 0.121773 0.1218 0.122129 0.122151 0.1218 0.12182 0.121773 0.1218 0.121448 0.121472 0.1218 0.12182 0.121472 0.121489 0.122151 0.122167 0.12182 0.121834 0.122167 0.122178 0.121834 0.121844 0.12182 0.121834 0.121489 0.121502 0.121834 0.121844 0.121502 0.121511 0.118287 0.119081 0.118118 0.118889 0.119081 0.11969 0.118889 0.119477 0.118118 0.118889 0.11794 0.118692 0.118889 0.119477 0.118692 0.11926 0.11969 0.120154 0.119477 0.119921 0.120154 0.120505 0.119921 0.120255 0.119477 0.119921 0.11926 0.119686 0.119921 0.120255 0.119686 0.120003 0.11794 0.118692 0.117754 0.118489 0.118692 0.11926 0.118489 0.11904 0.117754 0.118489 0.117559 0.118279 0.118489 0.11904 0.118279 0.118814 0.11926 0.119686 0.11904 0.119449 0.119686 0.120003 0.119449 0.119749 0.11904 0.119449 0.118814 0.119208 0.119449 0.119749 0.119208 0.119493 0.120505 0.12077 0.120255 0.120504 0.12077 0.120969 0.120504 0.120689 0.120255 0.120504 0.120003 0.120237 0.120504 0.120689 0.120237 0.120408 0.120969 0.121117 0.120689 0.120825 0.121117 0.121227 0.120825 0.120926 0.120689 0.120825 0.120408 0.120533 0.120825 0.120926 0.120533 0.120624 0.120003 0.120237 0.119749 0.119969 0.120237 0.120408 0.119969 0.120127 0.119749 0.119969 0.119493 0.119699 0.119969 0.120127 0.119699 0.119846 0.120408 0.120533 0.120127 0.120242 0.120533 0.120624 0.120242 0.120323 0.120127 0.120242 0.119846 0.11995 0.120242 0.120323 0.11995 0.120022 0.117559 0.118279 0.117357 0.118064 0.118279 0.118814 0.118064 0.118584 0.117357 0.118064 0.117146 0.117842 0.118064 0.118584 0.117842 0.11835 0.118814 0.119208 0.118584 0.118963 0.119208 0.119493 0.118963 0.119235 0.118584 0.118963 0.11835 0.118715 0.118963 0.119235 0.118715 0.118974 0.117146 0.117842 0.116928 0.117613 0.117842 0.11835 0.117613 0.11811 0.116928 0.117613 0.116702 0.117378 0.117613 0.11811 0.117378 0.117864 0.11835 0.118715 0.11811 0.118463 0.118715 0.118974 0.118463 0.11871 0.11811 0.118463 0.117864 0.118207 0.118463 0.11871 0.118207 0.118443 0.119493 0.119699 0.119235 0.119428 0.119699 0.119846 0.119428 0.119563 0.119235 0.119428 0.118974 0.119155 0.119428 0.119563 0.119155 0.119279 0.119846 0.11995 0.119563 0.119657 0.11995 0.120022 0.119657 0.119721 0.119563 0.119657 0.119279 0.119363 0.119657 0.119721 0.119363 0.119419 0.118974 0.119155 0.11871 0.11888 0.119155 0.119279 0.11888 0.118994 0.11871 0.11888 0.118443 0.118602 0.11888 0.118994 0.118602 0.118707 0.119279 0.119363 0.118994 0.119069 0.119363 0.119419 0.119069 0.119117 0.118994 0.119069 0.118707 0.118773 0.119069 0.119117 0.118773 0.118814 0.121227 0.121309 0.120926 0.121 0.121309 0.12137 0.121 0.121054 0.120926 0.121 0.120624 0.120691 0.121 0.121054 0.120691 0.120738 0.12137 0.121415 0.121054 0.121094 0.121415 0.121448 0.121094 0.121123 0.121054 0.121094 0.120738 0.120773 0.121094 0.121123 0.120773 0.120798 0.120624 0.120691 0.120323 0.120382 0.120691 0.120738 0.120382 0.120423 0.120323 0.120382 0.120022 0.120073 0.120382 0.120423 0.120073 0.120109 0.120738 0.120773 0.120423 0.120453 0.120773 0.120798 0.120453 0.120474 0.120423 0.120453 0.120109 0.120133 0.120453 0.120474 0.120133 0.12015 0.121448 0.121472 0.121123 0.121144 0.121472 0.121489 0.121144 0.121159 0.121123 0.121144 0.120798 0.120816 0.121144 0.121159 0.120816 0.120829 0.121489 0.121502 0.121159 0.12117 0.121502 0.121511 0.12117 0.121178 0.121159 0.12117 0.120829 0.120838 0.12117 0.121178 0.120838 0.120845 0.120798 0.120816 0.120474 0.120489 0.120816 0.120829 0.120489 0.1205 0.120474 0.120489 0.12015 0.120162 0.120489 0.1205 0.120162 0.12017 0.120829 0.120838 0.1205 0.120507 0.120838 0.120845 0.120507 0.120512 0.1205 0.120507 0.12017 0.120176 0.120507 0.120512 0.120176 0.12018 0.120022 0.120073 0.119721 0.119765 0.120073 0.120109 0.119765 0.119794 0.119721 0.119765 0.119419 0.119456 0.119765 0.119794 0.119456 0.119479 0.120109 0.120133 0.119794 0.119814 0.120133 0.12015 0.119814 0.119827 0.119794 0.119814 0.119479 0.119494 0.119814 0.119827 0.119494 0.119504 0.119419 0.119456 0.119117 0.119147 0.119456 0.119479 0.119147 0.119165 0.119117 0.119147 0.118814 0.118837 0.119147 0.119165 0.118837 0.118849 0.119479 0.119494 0.119165 0.119175 0.119494 0.119504 0.119175 0.11918 0.119165 0.119175 0.118849 0.118855 0.119175 0.11918 0.118855 0.118857 0.12015 0.120162 0.119827 0.119836 0.120162 0.12017 0.119836 0.119841 0.119827 0.119836 0.119504 0.119509 0.119836 0.119841 0.119509 0.119513 0.12017 0.120176 0.119841 0.119845 0.120176 0.12018 0.119845 0.119848 0.119841 0.119845 0.119513 0.119515 0.119845 0.119848 0.119515 0.119516 0.119504 0.119509 0.11918 0.119183 0.119509 0.119513 0.119183 0.119184 0.11918 0.119183 0.118857 0.118857 0.119183 0.119184 0.118857 0.118855 0.119513 0.119515 0.119184 0.119184 0.119515 0.119516 0.119184 0.119184 0.119184 0.119184 0.118855 0.118854 0.119184 0.119184 0.118854 0.118852 0 0.0161622 0 0.0160175 0.0161622 0.0312817 0.0160175 0.0309897 0 0.0160175 0 0.015894 0.0160175 0.0309897 0.015894 0.0307391 0.0312817 0.0453962 0.0309897 0.0449628 0.0453962 0.0583102 0.0449628 0.057772 0.0309897 0.0449628 0.0307391 0.0445843 0.0449628 0.057772 0.0445843 0.0572912 0 0.015894 0 0.0157877 0.015894 0.0307391 0.0157877 0.030522 0 0.0157877 0 0.0156953 0.0157877 0.030522 0.0156953 0.0303323 0.0307391 0.0445843 0.030522 0.0442516 0.0445843 0.0572912 0.0442516 0.0568601 0.030522 0.0442516 0.0303323 0.0439573 0.0442516 0.0568601 0.0439573 0.0564721 0.0583102 0.0697509 0.057772 0.0691706 0.0697509 0.0795611 0.0691706 0.0790007 0.057772 0.0691706 0.0572912 0.0686387 0.0691706 0.0790007 0.0686387 0.0784729 0.0795611 0.0877688 0.0790007 0.0872662 0.0877688 0.0945243 0.0872662 0.0940911 0.0790007 0.0872662 0.0784729 0.0867803 0.0872662 0.0940911 0.0867803 0.0936624 0.0572912 0.0686387 0.0568601 0.0681507 0.0686387 0.0784729 0.0681507 0.0779766 0.0568601 0.0681507 0.0564721 0.0677025 0.0681507 0.0779766 0.0677025 0.0775106 0.0784729 0.0867803 0.0779766 0.0863123 0.0867803 0.0936624 0.0863123 0.0932404 0.0779766 0.0863123 0.0775106 0.0858629 0.0863123 0.0932404 0.0858629 0.0928268 0 0.0156953 0 0.0156141 0.0156953 0.0303323 0.0156141 0.0301651 0 0.0156141 0 0.015542 0.0156141 0.0301651 0.015542 0.0300164 0.0303323 0.0439573 0.0301651 0.0436953 0.0439573 0.0564721 0.0436953 0.0561217 0.0301651 0.0436953 0.0300164 0.0434606 0.0436953 0.0561217 0.0434606 0.0558038 0 0.01