# vtk DataFile Version 3.0
#This file was generated by the deal.II library on 2022/1/6 at 22:51:31
ASCII
DATASET UNSTRUCTURED_GRID

POINTS 16384 double
0 0 0
0.1875 0 0
0 0.046875 0
0.1875 0.046875 0
0.1875 0 0
0.375 0 0
0.1875 0.046875 0
0.375 0.046875 0
0 0.046875 0
0.1875 0.046875 0
0 0.09375 0
0.1875 0.09375 0
0.1875 0.046875 0
0.375 0.046875 0
0.1875 0.09375 0
0.375 0.09375 0
0.375 0 0
0.5625 0 0
0.375 0.046875 0
0.5625 0.046875 0
0.5625 0 0
0.75 0 0
0.5625 0.046875 0
0.75 0.046875 0
0.375 0.046875 0
0.5625 0.046875 0
0.375 0.09375 0
0.5625 0.09375 0
0.5625 0.046875 0
0.75 0.046875 0
0.5625 0.09375 0
0.75 0.09375 0
0 0.09375 0
0.1875 0.09375 0
0 0.140625 0
0.1875 0.140625 0
0.1875 0.09375 0
0.375 0.09375 0
0.1875 0.140625 0
0.375 0.140625 0
0 0.140625 0
0.1875 0.140625 0
0 0.1875 0
0.1875 0.1875 0
0.1875 0.140625 0
0.375 0.140625 0
0.1875 0.1875 0
0.375 0.1875 0
0.375 0.09375 0
0.5625 0.09375 0
0.375 0.140625 0
0.5625 0.140625 0
0.5625 0.09375 0
0.75 0.09375 0
0.5625 0.140625 0
0.75 0.140625 0
0.375 0.140625 0
0.5625 0.140625 0
0.375 0.1875 0
0.5625 0.1875 0
0.5625 0.140625 0
0.75 0.140625 0
0.5625 0.1875 0
0.75 0.1875 0
0.75 0 0
0.9375 0 0
0.75 0.046875 0
0.9375 0.046875 0
0.9375 0 0
1.125 0 0
0.9375 0.046875 0
1.125 0.046875 0
0.75 0.046875 0
0.9375 0.046875 0
0.75 0.09375 0
0.9375 0.09375 0
0.9375 0.046875 0
1.125 0.046875 0
0.9375 0.09375 0
1.125 0.09375 0
1.125 0 0
1.3125 0 0
1.125 0.046875 0
1.3125 0.046875 0
1.3125 0 0
1.5 0 0
1.3125 0.046875 0
1.5 0.046875 0
1.125 0.046875 0
1.3125 0.046875 0
1.125 0.09375 0
1.3125 0.09375 0
1.3125 0.046875 0
1.5 0.046875 0
1.3125 0.09375 0
1.5 0.09375 0
0.75 0.09375 0
0.9375 0.09375 0
0.75 0.140625 0
0.9375 0.140625 0
0.9375 0.09375 0
1.125 0.09375 0
0.9375 0.140625 0
1.125 0.140625 0
0.75 0.140625 0
0.9375 0.140625 0
0.75 0.1875 0
0.9375 0.1875 0
0.9375 0.140625 0
1.125 0.140625 0
0.9375 0.1875 0
1.125 0.1875 0
1.125 0.09375 0
1.3125 0.09375 0
1.125 0.140625 0
1.3125 0.140625 0
1.3125 0.09375 0
1.5 0.09375 0
1.3125 0.140625 0
1.5 0.140625 0
1.125 0.140625 0
1.3125 0.140625 0
1.125 0.1875 0
1.3125 0.1875 0
1.3125 0.140625 0
1.5 0.140625 0
1.3125 0.1875 0
1.5 0.1875 0
0 0.1875 0
0.1875 0.1875 0
0 0.234375 0
0.1875 0.234375 0
0.1875 0.1875 0
0.375 0.1875 0
0.1875 0.234375 0
0.375 0.234375 0
0 0.234375 0
0.1875 0.234375 0
0 0.28125 0
0.1875 0.28125 0
0.1875 0.234375 0
0.375 0.234375 0
0.1875 0.28125 0
0.375 0.28125 0
0.375 0.1875 0
0.5625 0.1875 0
0.375 0.234375 0
0.5625 0.234375 0
0.5625 0.1875 0
0.75 0.1875 0
0.5625 0.234375 0
0.75 0.234375 0
0.375 0.234375 0
0.5625 0.234375 0
0.375 0.28125 0
0.5625 0.28125 0
0.5625 0.234375 0
0.75 0.234375 0
0.5625 0.28125 0
0.75 0.28125 0
0 0.28125 0
0.1875 0.28125 0
0 0.328125 0
0.1875 0.328125 0
0.1875 0.28125 0
0.375 0.28125 0
0.1875 0.328125 0
0.375 0.328125 0
0 0.328125 0
0.1875 0.328125 0
0 0.375 0
0.1875 0.375 0
0.1875 0.328125 0
0.375 0.328125 0
0.1875 0.375 0
0.375 0.375 0
0.375 0.28125 0
0.5625 0.28125 0
0.375 0.328125 0
0.5625 0.328125 0
0.5625 0.28125 0
0.75 0.28125 0
0.5625 0.328125 0
0.75 0.328125 0
0.375 0.328125 0
0.5625 0.328125 0
0.375 0.375 0
0.5625 0.375 0
0.5625 0.328125 0
0.75 0.328125 0
0.5625 0.375 0
0.75 0.375 0
0.75 0.1875 0
0.9375 0.1875 0
0.75 0.234375 0
0.9375 0.234375 0
0.9375 0.1875 0
1.125 0.1875 0
0.9375 0.234375 0
1.125 0.234375 0
0.75 0.234375 0
0.9375 0.234375 0
0.75 0.28125 0
0.9375 0.28125 0
0.9375 0.234375 0
1.125 0.234375 0
0.9375 0.28125 0
1.125 0.28125 0
1.125 0.1875 0
1.3125 0.1875 0
1.125 0.234375 0
1.3125 0.234375 0
1.3125 0.1875 0
1.5 0.1875 0
1.3125 0.234375 0
1.5 0.234375 0
1.125 0.234375 0
1.3125 0.234375 0
1.125 0.28125 0
1.3125 0.28125 0
1.3125 0.234375 0
1.5 0.234375 0
1.3125 0.28125 0
1.5 0.28125 0
0.75 0.28125 0
0.9375 0.28125 0
0.75 0.328125 0
0.9375 0.328125 0
0.9375 0.28125 0
1.125 0.28125 0
0.9375 0.328125 0
1.125 0.328125 0
0.75 0.328125 0
0.9375 0.328125 0
0.75 0.375 0
0.9375 0.375 0
0.9375 0.328125 0
1.125 0.328125 0
0.9375 0.375 0
1.125 0.375 0
1.125 0.28125 0
1.3125 0.28125 0
1.125 0.328125 0
1.3125 0.328125 0
1.3125 0.28125 0
1.5 0.28125 0
1.3125 0.328125 0
1.5 0.328125 0
1.125 0.328125 0
1.3125 0.328125 0
1.125 0.375 0
1.3125 0.375 0
1.3125 0.328125 0
1.5 0.328125 0
1.3125 0.375 0
1.5 0.375 0
1.5 0 0
1.6875 0 0
1.5 0.046875 0
1.6875 0.046875 0
1.6875 0 0
1.875 0 0
1.6875 0.046875 0
1.875 0.046875 0
1.5 0.046875 0
1.6875 0.046875 0
1.5 0.09375 0
1.6875 0.09375 0
1.6875 0.046875 0
1.875 0.046875 0
1.6875 0.09375 0
1.875 0.09375 0
1.875 0 0
2.0625 0 0
1.875 0.046875 0
2.0625 0.046875 0
2.0625 0 0
2.25 0 0
2.0625 0.046875 0
2.25 0.046875 0
1.875 0.046875 0
2.0625 0.046875 0
1.875 0.09375 0
2.0625 0.09375 0
2.0625 0.046875 0
2.25 0.046875 0
2.0625 0.09375 0
2.25 0.09375 0
1.5 0.09375 0
1.6875 0.09375 0
1.5 0.140625 0
1.6875 0.140625 0
1.6875 0.09375 0
1.875 0.09375 0
1.6875 0.140625 0
1.875 0.140625 0
1.5 0.140625 0
1.6875 0.140625 0
1.5 0.1875 0
1.6875 0.1875 0
1.6875 0.140625 0
1.875 0.140625 0
1.6875 0.1875 0
1.875 0.1875 0
1.875 0.09375 0
2.0625 0.09375 0
1.875 0.140625 0
2.0625 0.140625 0
2.0625 0.09375 0
2.25 0.09375 0
2.0625 0.140625 0
2.25 0.140625 0
1.875 0.140625 0
2.0625 0.140625 0
1.875 0.1875 0
2.0625 0.1875 0
2.0625 0.140625 0
2.25 0.140625 0
2.0625 0.1875 0
2.25 0.1875 0
2.25 0 0
2.4375 0 0
2.25 0.046875 0
2.4375 0.046875 0
2.4375 0 0
2.625 0 0
2.4375 0.046875 0
2.625 0.046875 0
2.25 0.046875 0
2.4375 0.046875 0
2.25 0.09375 0
2.4375 0.09375 0
2.4375 0.046875 0
2.625 0.046875 0
2.4375 0.09375 0
2.625 0.09375 0
2.625 0 0
2.8125 0 0
2.625 0.046875 0
2.8125 0.046875 0
2.8125 0 0
3 0 0
2.8125 0.046875 0
3 0.046875 0
2.625 0.046875 0
2.8125 0.046875 0
2.625 0.09375 0
2.8125 0.09375 0
2.8125 0.046875 0
3 0.046875 0
2.8125 0.09375 0
3 0.09375 0
2.25 0.09375 0
2.4375 0.09375 0
2.25 0.140625 0
2.4375 0.140625 0
2.4375 0.09375 0
2.625 0.09375 0
2.4375 0.140625 0
2.625 0.140625 0
2.25 0.140625 0
2.4375 0.140625 0
2.25 0.1875 0
2.4375 0.1875 0
2.4375 0.140625 0
2.625 0.140625 0
2.4375 0.1875 0
2.625 0.1875 0
2.625 0.09375 0
2.8125 0.09375 0
2.625 0.140625 0
2.8125 0.140625 0
2.8125 0.09375 0
3 0.09375 0
2.8125 0.140625 0
3 0.140625 0
2.625 0.140625 0
2.8125 0.140625 0
2.625 0.1875 0
2.8125 0.1875 0
2.8125 0.140625 0
3 0.140625 0
2.8125 0.1875 0
3 0.1875 0
1.5 0.1875 0
1.6875 0.1875 0
1.5 0.234375 0
1.6875 0.234375 0
1.6875 0.1875 0
1.875 0.1875 0
1.6875 0.234375 0
1.875 0.234375 0
1.5 0.234375 0
1.6875 0.234375 0
1.5 0.28125 0
1.6875 0.28125 0
1.6875 0.234375 0
1.875 0.234375 0
1.6875 0.28125 0
1.875 0.28125 0
1.875 0.1875 0
2.0625 0.1875 0
1.875 0.234375 0
2.0625 0.234375 0
2.0625 0.1875 0
2.25 0.1875 0
2.0625 0.234375 0
2.25 0.234375 0
1.875 0.234375 0
2.0625 0.234375 0
1.875 0.28125 0
2.0625 0.28125 0
2.0625 0.234375 0
2.25 0.234375 0
2.0625 0.28125 0
2.25 0.28125 0
1.5 0.28125 0
1.6875 0.28125 0
1.5 0.328125 0
1.6875 0.328125 0
1.6875 0.28125 0
1.875 0.28125 0
1.6875 0.328125 0
1.875 0.328125 0
1.5 0.328125 0
1.6875 0.328125 0
1.5 0.375 0
1.6875 0.375 0
1.6875 0.328125 0
1.875 0.328125 0
1.6875 0.375 0
1.875 0.375 0
1.875 0.28125 0
2.0625 0.28125 0
1.875 0.328125 0
2.0625 0.328125 0
2.0625 0.28125 0
2.25 0.28125 0
2.0625 0.328125 0
2.25 0.328125 0
1.875 0.328125 0
2.0625 0.328125 0
1.875 0.375 0
2.0625 0.375 0
2.0625 0.328125 0
2.25 0.328125 0
2.0625 0.375 0
2.25 0.375 0
2.25 0.1875 0
2.4375 0.1875 0
2.25 0.234375 0
2.4375 0.234375 0
2.4375 0.1875 0
2.625 0.1875 0
2.4375 0.234375 0
2.625 0.234375 0
2.25 0.234375 0
2.4375 0.234375 0
2.25 0.28125 0
2.4375 0.28125 0
2.4375 0.234375 0
2.625 0.234375 0
2.4375 0.28125 0
2.625 0.28125 0
2.625 0.1875 0
2.8125 0.1875 0
2.625 0.234375 0
2.8125 0.234375 0
2.8125 0.1875 0
3 0.1875 0
2.8125 0.234375 0
3 0.234375 0
2.625 0.234375 0
2.8125 0.234375 0
2.625 0.28125 0
2.8125 0.28125 0
2.8125 0.234375 0
3 0.234375 0
2.8125 0.28125 0
3 0.28125 0
2.25 0.28125 0
2.4375 0.28125 0
2.25 0.328125 0
2.4375 0.328125 0
2.4375 0.28125 0
2.625 0.28125 0
2.4375 0.328125 0
2.625 0.328125 0
2.25 0.328125 0
2.4375 0.328125 0
2.25 0.375 0
2.4375 0.375 0
2.4375 0.328125 0
2.625 0.328125 0
2.4375 0.375 0
2.625 0.375 0
2.625 0.28125 0
2.8125 0.28125 0
2.625 0.328125 0
2.8125 0.328125 0
2.8125 0.28125 0
3 0.28125 0
2.8125 0.328125 0
3 0.328125 0
2.625 0.328125 0
2.8125 0.328125 0
2.625 0.375 0
2.8125 0.375 0
2.8125 0.328125 0
3 0.328125 0
2.8125 0.375 0
3 0.375 0
0 0.375 0
0.1875 0.375 0
0 0.421875 0
0.1875 0.421875 0
0.1875 0.375 0
0.375 0.375 0
0.1875 0.421875 0
0.375 0.421875 0
0 0.421875 0
0.1875 0.421875 0
0 0.46875 0
0.1875 0.46875 0
0.1875 0.421875 0
0.375 0.421875 0
0.1875 0.46875 0
0.375 0.46875 0
0.375 0.375 0
0.5625 0.375 0
0.375 0.421875 0
0.5625 0.421875 0
0.5625 0.375 0
0.75 0.375 0
0.5625 0.421875 0
0.75 0.421875 0
0.375 0.421875 0
0.5625 0.421875 0
0.375 0.46875 0
0.5625 0.46875 0
0.5625 0.421875 0
0.75 0.421875 0
0.5625 0.46875 0
0.75 0.46875 0
0 0.46875 0
0.1875 0.46875 0
0 0.515625 0
0.1875 0.515625 0
0.1875 0.46875 0
0.375 0.46875 0
0.1875 0.515625 0
0.375 0.515625 0
0 0.515625 0
0.1875 0.515625 0
0 0.5625 0
0.1875 0.5625 0
0.1875 0.515625 0
0.375 0.515625 0
0.1875 0.5625 0
0.375 0.5625 0
0.375 0.46875 0
0.5625 0.46875 0
0.375 0.515625 0
0.5625 0.515625 0
0.5625 0.46875 0
0.75 0.46875 0
0.5625 0.515625 0
0.75 0.515625 0
0.375 0.515625 0
0.5625 0.515625 0
0.375 0.5625 0
0.5625 0.5625 0
0.5625 0.515625 0
0.75 0.515625 0
0.5625 0.5625 0
0.75 0.5625 0
0.75 0.375 0
0.9375 0.375 0
0.75 0.421875 0
0.9375 0.421875 0
0.9375 0.375 0
1.125 0.375 0
0.9375 0.421875 0
1.125 0.421875 0
0.75 0.421875 0
0.9375 0.421875 0
0.75 0.46875 0
0.9375 0.46875 0
0.9375 0.421875 0
1.125 0.421875 0
0.9375 0.46875 0
1.125 0.46875 0
1.125 0.375 0
1.3125 0.375 0
1.125 0.421875 0
1.3125 0.421875 0
1.3125 0.375 0
1.5 0.375 0
1.3125 0.421875 0
1.5 0.421875 0
1.125 0.421875 0
1.3125 0.421875 0
1.125 0.46875 0
1.3125 0.46875 0
1.3125 0.421875 0
1.5 0.421875 0
1.3125 0.46875 0
1.5 0.46875 0
0.75 0.46875 0
0.9375 0.46875 0
0.75 0.515625 0
0.9375 0.515625 0
0.9375 0.46875 0
1.125 0.46875 0
0.9375 0.515625 0
1.125 0.515625 0
0.75 0.515625 0
0.9375 0.515625 0
[...]
POINT_DATA 16384
SCALARS x_displacement double 1
LOOKUP_TABLE default
0 0.0331805 0 0.029719 0.0331805 0.0584393 0.029719 0.0568669 0 0.029719 0 0.0273417 0.029719 0.0568669 0.0273417 0.0541842 0.0584393 0.0740461 0.0568669 0.0728401 0.0740461 0.079822 0.0728401 0.0791034 0.0568669 0.0728401 0.0541842 0.0709362 0.0728401 0.0791034 0.0709362 0.0779347 0 0.0273417 0 0.0253838 0.0273417 0.0541842 0.0253838 0.0506942 0 0.0253838 0 0.0237368 0.0253838 0.0506942 0.0237368 0.0471363 0.0541842 0.0709362 0.0506942 0.0682345 0.0709362 0.0779347 0.0682345 0.0763544 0.0506942 0.0682345 0.0471363 0.0645876 0.0682345 0.0763544 0.0645876 0.0744949 0.079822 0.0851242 0.0791034 0.0848579 0.0851242 0.0909247 0.0848579 0.0909872 0.0791034 0.0848579 0.0779347 0.0843477 0.0848579 0.0909872 0.0843477 0.0908631 0.0909247 0.0967655 0.0909872 0.0969584 0.0967655 0.102285 0.0969584 0.102529 0.0909872 0.0969584 0.0908631 0.0970205 0.0969584 0.102529 0.0970205 0.102675 0.0779347 0.0843477 0.0763544 0.0836345 0.0843477 0.0908631 0.0836345 0.0905808 0.0763544 0.0836345 0.0744949 0.0827655 0.0836345 0.0905808 0.0827655 0.0901623 0.0908631 0.0970205 0.0905808 0.0969618 0.0970205 0.102675 0.0969618 0.102729 0.0905808 0.0969618 0.0901623 0.0967965 0.0969618 0.102729 0.0967965 0.102698 0 0.0237368 0 0.0223413 0.0237368 0.0471363 0.0223413 0.0438025 0 0.0223413 0 0.0211136 0.0223413 0.0438025 0.0211136 0.0411611 0.0471363 0.0645876 0.0438025 0.0608768 0.0645876 0.0744949 0.0608768 0.072592 0.0438025 0.0608768 0.0411611 0.0579073 0.0608768 0.072592 0.0579073 0.0706823 0 0.0211136 0 0.0200788 0.0211136 0.0411611 0.0200788 0.0390671 0 0.0200788 0 0.0192269 0.0200788 0.0390671 0.0192269 0.0373992 0.0411611 0.0579073 0.0390671 0.0555355 0.0579073 0.0706823 0.0555355 0.0688932 0.0390671 0.0555355 0.0373992 0.0535999 0.0555355 0.0688932 0.0535999 0.067274 0.0744949 0.0827655 0.072592 0.0817638 0.0827655 0.0901623 0.0817638 0.0896357 0.072592 0.0817638 0.0706823 0.0806871 0.0817638 0.0896357 0.0806871 0.0890227 0.0901623 0.0967965 0.0896357 0.096538 0.0967965 0.102698 0.096538 0.102591 0.0896357 0.096538 0.0890227 0.0962007 0.096538 0.102591 0.0962007 0.102417 0.0706823 0.0806871 0.0688932 0.079569 0.0806871 0.0890227 0.079569 0.0883476 0.0688932 0.079569 0.067274 0.0784512 0.079569 0.0883476 0.0784512 0.0876299 0.0890227 0.0962007 0.0883476 0.0957979 0.0962007 0.102417 0.0957979 0.102183 0.0883476 0.0957979 0.0876299 0.0953434 0.0957979 0.102183 0.0953434 0.101898 0.102285 0.107336 0.102529 0.107586 0.107336 0.111861 0.107586 0.112089 0.102529 0.107586 0.102675 0.10776 0.107586 0.112089 0.10776 0.112257 0.111861 0.115851 0.112089 0.116039 0.115851 0.119323 0.116039 0.11946 0.112089 0.116039 0.112257 0.116181 0.116039 0.11946 0.116181 0.119564 0.102675 0.10776 0.102729 0.107863 0.10776 0.112257 0.107863 0.11237 0.102729 0.107863 0.102698 0.107898 0.107863 0.11237 0.107898 0.11243 0.112257 0.116181 0.11237 0.11628 0.116181 0.119564 0.11628 0.119634 0.11237 0.11628 0.11243 0.116338 0.11628 0.119634 0.116338 0.119672 0.119323 0.122307 0.11946 0.12239 0.122307 0.124844 0.12239 0.124872 0.11946 0.12239 0.119564 0.122448 0.12239 0.124872 0.122448 0.124882 0.124844 0.12698 0.124872 0.126954 0.12698 0.128759 0.126954 0.128683 0.124872 0.126954 0.124882 0.126915 0.126954 0.128683 0.126915 0.128599 0.119564 0.122448 0.119634 0.122481 0.122448 0.124882 0.122481 0.124873 0.119634 0.122481 0.119672 0.12249 0.122481 0.124873 0.12249 0.124847 0.124882 0.126915 0.124873 0.126865 0.126915 0.128599 0.126865 0.128508 0.124873 0.126865 0.124847 0.126801 0.126865 0.128508 0.126801 0.128407 0.102698 0.107898 0.102591 0.107872 0.107898 0.11243 0.107872 0.11244 0.102591 0.107872 0.102417 0.107789 0.107872 0.11244 0.107789 0.112404 0.11243 0.116338 0.11244 0.116356 0.116338 0.119672 0.116356 0.11968 0.11244 0.116356 0.112404 0.116336 0.116356 0.11968 0.116336 0.119657 0.102417 0.107789 0.102183 0.107655 0.107789 0.112404 0.107655 0.112325 0.102183 0.107655 0.101898 0.107476 0.107655 0.112325 0.107476 0.112206 0.112404 0.116336 0.112325 0.116281 0.116336 0.119657 0.116281 0.119606 0.112325 0.116281 0.112206 0.116193 0.116281 0.119606 0.116193 0.119528 0.119672 0.12249 0.11968 0.122475 0.12249 0.124847 0.122475 0.124803 0.11968 0.122475 0.119657 0.122436 0.122475 0.124803 0.122436 0.124741 0.124847 0.126801 0.124803 0.126725 0.126801 0.128407 0.126725 0.128298 0.124803 0.126725 0.124741 0.126636 0.126725 0.128298 0.126636 0.128179 0.119657 0.122436 0.119606 0.122375 0.122436 0.124741 0.122375 0.124662 0.119606 0.122375 0.119528 0.122293 0.122375 0.124662 0.122293 0.124566 0.124741 0.126636 0.124662 0.126533 0.126636 0.128179 0.126533 0.128051 0.124662 0.126533 0.124566 0.126418 0.126533 0.128051 0.126418 0.127912 0 0.0192269 0 0.0185336 0.0192269 0.0373992 0.0185336 0.0360619 0 0.0185336 0 0.0179718 0.0185336 0.0360619 0.0179718 0.0349823 0.0373992 0.0535999 0.0360619 0.0520003 0.0535999 0.067274 0.0520003 0.0658295 0.0360619 0.0520003 0.0349823 0.0506671 0.0520003 0.0658295 0.0506671 0.0645492 0 0.0179718 0 0.0175162 0.0179718 0.0349823 0.0175162 0.0341047 0 0.0175162 0 0.0171454 0.0175162 0.0341047 0.0171454 0.0333864 0.0349823 0.0506671 0.0341047 0.0495485 0.0506671 0.0645492 0.0495485 0.0634179 0.0341047 0.0495485 0.0333864 0.0486045 0.0495485 0.0634179 0.0486045 0.0624193 0.067274 0.0784512 0.0658295 0.0773664 0.0784512 0.0876299 0.0773664 0.0868885 0.0658295 0.0773664 0.0645492 0.0763348 0.0773664 0.0868885 0.0763348 0.0861404 0.0876299 0.0953434 0.0868885 0.0948494 0.0953434 0.101898 0.0948494 0.10157 0.0868885 0.0948494 0.0861404 0.094327 0.0948494 0.10157 0.094327 0.101208 0.0645492 0.0763348 0.0634179 0.0753673 0.0763348 0.0861404 0.0753673 0.0853993 0.0634179 0.0753673 0.0624193 0.0744681 0.0753673 0.0853993 0.0744681 0.0846759 0.0861404 0.094327 0.0853993 0.0937865 0.094327 0.101208 0.0937865 0.100818 0.0853993 0.0937865 0.0846759 0.0932367 0.0937865 0.100818 0.0932367 0.100408 0 0.0171454 0 0.016842 0.0171454 0.0333864 0.016842 0.0327941 0 0.016842 0 0.016592 0.016842 0.0327941 0.016592 0.0323022 0.0333864 0.0486045 0.0327941 0.0478035 0.0486045 0.0624193 0.0478035 0.0615376 0.0327941 0.0478035 0.0323022 0.0471201 0.0478035 0.0615376 0.0471201 0.0607583 0 0.016592 0 0.0163844 0.016592 0.0323022 0.0163844 0.0318903 0 0.0163844 0 0.0162107 0.0163844 0.0318903 0.0162107 0.0315427 0.0323022 0.0471201 0.0318903 0.0465338 0.0471201 0.0607583 0.0465338 0.0600682 0.0318903 0.0465338 0.0315427 0.046028 0.0465338 0.0600682 0.046028 0.0594557 0.0624193 0.0744681 0.0615376 0.0736376 0.0744681 0.0846759 0.0736376 0.0839774 0.0615376 0.0736376 0.0607583 0.0728737 0.0736376 0.0839774 0.0728737 0.0833088 0.0846759 0.0932367 0.0839774 0.0926851 0.0932367 0.100408 0.0926851 0.0999825 0.0839774 0.0926851 0.0833088 0.092138 0.0926851 0.0999825 0.092138 0.0995477 0.0607583 0.0728737 0.0600682 0.072173 0.0728737 0.0833088 0.072173 0.0826728 0.0600682 0.072173 0.0594557 0.0715309 0.072173 0.0826728 0.0715309 0.0820708 0.0833088 0.092138 0.0826728 0.0916003 0.092138 0.0995477 0.0916003 0.0991081 0.0826728 0.0916003 0.0820708 0.0910755 0.0916003 0.0991081 0.0910755 0.0986675 0.101898 0.107476 0.10157 0.107256 0.107476 0.112206 0.107256 0.112052 0.10157 0.107256 0.101208 0.107002 0.107256 0.112052 0.107002 0.111866 0.112206 0.116193 0.112052 0.116075 0.116193 0.119528 0.116075 0.119424 0.112052 0.116075 0.111866 0.115929 0.116075 0.119424 0.115929 0.119297 0.101208 0.107002 0.100818 0.106718 0.107002 0.111866 0.106718 0.111652 0.100818 0.106718 0.100408 0.106409 0.106718 0.111652 0.106409 0.111413 0.111866 0.115929 0.111652 0.115757 0.115929 0.119297 0.115757 0.119148 0.111652 0.115757 0.111413 0.115563 0.115757 0.119148 0.115563 0.118978 0.119528 0.122293 0.119424 0.12219 0.122293 0.124566 0.12219 0.124453 0.119424 0.12219 0.119297 0.122067 0.12219 0.124453 0.122067 0.124325 0.124566 0.126418 0.124453 0.126289 0.126418 0.127912 0.126289 0.127765 0.124453 0.126289 0.124325 0.126148 0.126289 0.127765 0.126148 0.127607 0.119297 0.122067 0.119148 0.121926 0.122067 0.124325 0.121926 0.124181 0.119148 0.121926 0.118978 0.121767 0.121926 0.124181 0.121767 0.124022 0.124325 0.126148 0.124181 0.125994 0.126148 0.127607 0.125994 0.127439 0.124181 0.125994 0.124022 0.125829 0.125994 0.127439 0.125829 0.127262 0.100408 0.106409 0.0999825 0.10608 0.106409 0.111413 0.10608 0.111153 0.0999825 0.10608 0.0995477 0.105735 0.10608 0.111153 0.105735 0.110874 0.111413 0.115563 0.111153 0.115347 0.115563 0.118978 0.115347 0.11879 0.111153 0.115347 0.110874 0.115114 0.115347 0.11879 0.115114 0.118584 0.0995477 0.105735 0.0991081 0.105378 0.105735 0.110874 0.105378 0.110579 0.0991081 0.105378 0.0986675 0.105012 0.105378 0.110579 0.105012 0.110273 0.110874 0.115114 0.110579 0.114864 0.115114 0.118584 0.114864 0.118363 0.110579 0.114864 0.110273 0.1146 0.114864 0.118363 0.1146 0.118128 0.118978 0.121767 0.11879 0.121591 0.121767 0.124022 0.121591 0.123849 0.11879 0.121591 0.118584 0.1214 0.121591 0.123849 0.1214 0.123663 0.124022 0.125829 0.123849 0.125651 0.125829 0.127262 0.125651 0.127075 0.123849 0.125651 0.123663 0.125463 0.125651 0.127075 0.125463 0.126879 0.118584 0.1214 0.118363 0.121195 0.1214 0.123663 0.121195 0.123464 0.118363 0.121195 0.118128 0.120977 0.121195 0.123464 0.120977 0.123253 0.123663 0.125463 0.123464 0.125263 0.125463 0.126879 0.125263 0.126673 0.123464 0.125263 0.123253 0.125053 0.125263 0.126673 0.125053 0.126459 0.128759 0.130228 0.128683 0.130107 0.130228 0.13143 0.130107 0.131269 0.128683 0.130107 0.128599 0.129981 0.130107 0.131269 0.129981 0.131105 0.13143 0.132405 0.131269 0.132209 0.132405 0.133189 0.132209 0.132963 0.131269 0.132209 0.131105 0.132012 0.132209 0.132963 0.132012 0.132738 0.128599 0.129981 0.128508 0.129851 0.129981 0.131105 0.129851 0.13094 0.128508 0.129851 0.128407 0.129715 0.129851 0.13094 0.129715 0.130771 0.131105 0.132012 0.13094 0.131816 0.132012 0.132738 0.131816 0.132514 0.13094 0.131816 0.130771 0.131618 0.131816 0.132514 0.131618 0.132291 0.133189 0.133814 0.132963 0.133563 0.133814 0.134309 0.133563 0.134038 0.132963 0.133563 0.132738 0.133315 0.133563 0.134038 0.133315 0.133769 0.134309 0.134697 0.134038 0.134409 0.134697 0.134999 0.134409 0.134698 0.134038 0.134409 0.133769 0.134125 0.134409 0.134698 0.134125 0.134401 0.132738 0.133315 0.132514 0.133068 0.133315 0.133769 0.133068 0.133503 0.132514 0.133068 0.132291 0.132822 0.133068 0.133503 0.132822 0.133238 0.133769 0.134125 0.133503 0.133842 0.134125 0.134401 0.133842 0.134105 0.133503 0.133842 0.133238 0.133562 0.133842 0.134105 0.133562 0.133812 0.128407 0.129715 0.128298 0.129573 0.129715 0.130771 0.129573 0.130599 0.128298 0.129573 0.128179 0.129425 0.129573 0.130599 0.129425 0.130423 0.130771 0.131618 0.130599 0.131418 0.131618 0.132291 0.131418 0.132067 0.130599 0.131418 0.130423 0.131216 0.131418 0.132067 0.131216 0.131842 0.128179 0.129425 0.128051 0.12927 0.129425 0.130423 0.12927 0.130243 0.128051 0.12927 0.127912 0.129109 0.12927 0.130243 0.129109 0.130058 0.130423 0.131216 0.130243 0.131012 0.131216 0.131842 0.131012 0.131615 0.130243 0.131012 0.130058 0.130804 0.131012 0.131615 0.130804 0.131387 0.132291 0.132822 0.132067 0.132576 0.132822 0.133238 0.132576 0.132974 0.132067 0.132576 0.131842 0.132331 0.132576 0.132974 0.132331 0.132711 0.133238 0.133562 0.132974 0.133283 0.133562 0.133812 0.133283 0.13352 0.132974 0.133283 0.132711 0.133005 0.133283 0.13352 0.133005 0.13323 0.131842 0.132331 0.131615 0.132085 0.132331 0.132711 0.132085 0.132448 0.131615 0.132085 0.131387 0.131838 0.132085 0.132448 0.131838 0.132185 0.132711 0.133005 0.132448 0.132727 0.133005 0.13323 0.132727 0.13294 0.132448 0.132727 0.132185 0.13245 0.132727 0.13294 0.13245 0.132651 0.134999 0.135232 0.134698 0.134922 0.135232 0.135411 0.134922 0.135093 0.134698 0.134922 0.134401 0.134614 0.134922 0.135093 0.134614 0.134777 0.135411 0.135546 0.135093 0.135222 0.135546 0.135648 0.135222 0.13532 0.135093 0.135222 0.134777 0.134901 0.135222 0.13532 0.134901 0.134994 0.134401 0.134614 0.134105 0.134308 0.134614 0.134777 0.134308 0.134463 0.134105 0.134308 0.133812 0.134004 0.134308 0.134463 0.134004 0.134151 0.134777 0.134901 0.134463 0.134581 0.134901 0.134994 0.134581 0.134669 0.134463 0.134581 0.134151 0.134262 0.134581 0.134669 0.134262 0.134346 0.135648 0.135724 0.13532 0.135393 0.135724 0.135781 0.135393 0.135447 0.13532 0.135393 0.134994 0.135064 0.135393 0.135447 0.135064 0.135116 0.135781 0.135822 0.135447 0.135487 0.135822 0.135851 0.135487 0.135516 0.135447 0.135487 0.135116 0.135153 0.135487 0.135516 0.135153 0.135181 0.134994 0.135064 0.134669 0.134736 0.135064 0.135116 0.134736 0.134785 0.134669 0.134736 0.134346 0.134409 0.134736 0.134785 0.134409 0.134455 0.135116 0.135153 0.134785 0.134821 0.135153 0.135181 0.134821 0.134847 0.134785 0.134821 0.134455 0.134489 0.134821 0.134847 0.134489 0.134514 0.133812 0.134004 0.13352 0.133702 0.134004 0.134151 0.133702 0.133841 0.13352 0.133702 0.13323 0.133401 0.133702 0.133841 0.133401 0.133532 0.134151 0.134262 0.133841 0.133945 0.134262 0.134346 0.133945 0.134024 0.133841 0.133945 0.133532 0.13363 0.133945 0.134024 0.13363 0.133703 0.13323 0.133401 0.13294 0.133102 0.133401 0.133532 0.133102 0.133224 0.13294 0.133102 0.132651 0.132803 0.133102 0.133224 0.132803 0.132916 0.133532 0.13363 0.133224 0.133315 0.13363 0.133703 0.133315 0.133383 0.133224 0.133315 0.132916 0.133001 0.133315 0.133383 0.133001 0.133064 0.134346 0.134409 0.134024 0.134083 0.134409 0.134455 0.134083 0.134126 0.134024 0.134083 0.133703 0.133758 0.134083 0.134126 0.133758 0.133798 0.134455 0.134489 0.134126 0.134158 0.134489 0.134514 0.134158 0.134182 0.134126 0.134158 0.133798 0.133828 0.134158 0.134182 0.133828 0.13385 0.133703 0.133758 0.133383 0.133434 0.133758 0.133798 0.133434 0.133471 0.133383 0.133434 0.133064 0.13311 0.133434 0.133471 0.13311 0.133144 0.133798 0.133828 0.133471 0.133498 0.133828 0.13385 0.133498 0.133518 0.133471 0.133498 0.133144 0.133169 0.133498 0.133518 0.133169 0.133187 0.127912 0.129109 0.127765 0.12894 0.129109 0.130058 0.12894 0.129867 0.127765 0.12894 0.127607 0.128763 0.12894 0.129867 0.128763 0.129672 0.130058 0.130804 0.129867 0.130593 0.130804 0.131387 0.130593 0.131157 0.129867 0.130593 0.129672 0.130378 0.130593 0.131157 0.130378 0.130924 0.127607 0.128763 0.127439 0.128579 0.128763 0.129672 0.128579 0.12947 0.127439 0.128579 0.127262 0.128388 0.128579 0.12947 0.128388 0.129263 0.129672 0.130378 0.12947 0.130159 0.130378 0.130924 0.130159 0.130688 0.12947 0.130159 0.129263 0.129936 0.130159 0.130688 0.129936 0.130449 0.131387 0.131838 0.131157 0.131591 0.131838 0.132185 0.131591 0.131922 0.131157 0.131591 0.130924 0.131341 0.131591 0.131922 0.131341 0.131658 0.132185 0.13245 0.131922 0.132173 0.13245 0.132651 0.132173 0.132363 0.131922 0.132173 0.131658 0.131896 0.132173 0.132363 0.131896 0.132074 0.130924 0.131341 0.130688 0.131089 0.131341 0.131658 0.131089 0.131392 0.130688 0.131089 0.130449 0.130836 0.131089 0.131392 0.130836 0.131125 0.131658 0.131896 0.131392 0.131618 0.131896 0.132074 0.131618 0.131785 0.131392 0.131618 0.131125 0.131339 0.131618 0.131785 0.131339 0.131495 0.127262 0.128388 0.127075 0.128188 0.128388 0.129263 0.128188 0.129049 0.127075 0.128188 0.126879 0.127981 0.128188 0.129049 0.127981 0.128829 0.129263 0.129936 0.129049 0.129708 0.129936 0.130449 0.129708 0.130206 0.129049 0.129708 0.128829 0.129475 0.129708 0.130206 0.129475 0.12996 0.126879 0.127981 0.126673 0.127766 0.127981 0.128829 0.127766 0.128604 0.126673 0.127766 0.126459 0.127544 0.127766 0.128604 0.127544 0.128371 0.128829 0.129475 0.128604 0.129237 0.129475 0.12996 0.129237 0.129709 0.128604 0.129237 0.128371 0.128993 0.129237 0.129709 0.128993 0.129455 0.130449 0.130836 0.130206 0.130579 0.130836 0.131125 0.130579 0.130856 0.130206 0.130579 0.12996 0.13032 0.130579 0.130856 0.13032 0.130585 0.131125 0.131339 0.130856 0.131058 0.131339 0.131495 0.131058 0.131205 0.130856 0.131058 0.130585 0.130776 0.131058 0.131205 0.130776 0.130914 0.12996 0.13032 0.129709 0.130058 0.13032 0.130585 0.130058 0.130311 0.129709 0.130058 0.129455 0.129793 0.130058 0.130311 0.129793 0.130035 0.130585 0.130776 0.130311 0.130493 0.130776 0.130914 0.130493 0.130621 0.130311 0.130493 0.130035 0.130208 0.130493 0.130621 0.130208 0.130327 0.132651 0.132803 0.132363 0.132504 0.132803 0.132916 0.132504 0.13261 0.132363 0.132504 0.132074 0.132206 0.132504 0.13261 0.132206 0.132304 0.132916 0.133001 0.13261 0.132688 0.133001 0.133064 0.132688 0.132746 0.13261 0.132688 0.132304 0.132375 0.132688 0.132746 0.132375 0.132427 0.132074 0.132206 0.131785 0.131908 0.132206 0.132304 0.131908 0.131998 0.131785 0.131908 0.131495 0.131609 0.131908 0.131998 0.131609 0.131692 0.132304 0.132375 0.131998 0.132063 0.132375 0.132427 0.132063 0.13211 0.131998 0.132063 0.131692 0.13175 0.132063 0.13211 0.13175 0.131792 0.133064 0.13311 0.132746 0.132788 0.13311 0.133144 0.132788 0.132818 0.132746 0.132788 0.132427 0.132465 0.132788 0.132818 0.132465 0.132493 0.133144 0.133169 0.132818 0.132841 0.133169 0.133187 0.132841 0.132857 0.132818 0.132841 0.132493 0.132513 0.132841 0.132857 0.132513 0.132527 0.132427 0.132465 0.13211 0.132143 0.132465 0.132493 0.132143 0.132168 0.13211 0.132143 0.131792 0.131822 0.132143 0.132168 0.131822 0.131842 0.132493 0.132513 0.132168 0.132185 0.132513 0.132527 0.132185 0.132197 0.132168 0.132185 0.131842 0.131857 0.132185 0.132197 0.131857 0.131867 0.131495 0.131609 0.131205 0.13131 0.131609 0.131692 0.13131 0.131385 0.131205 0.13131 0.130914 0.131011 0.13131 0.131385 0.131011 0.131079 0.131692 0.13175 0.131385 0.131438 0.13175 0.131792 0.131438 0.131475 0.131385 0.131438 0.131079 0.131125 0.131438 0.131475 0.131125 0.131157 0.130914 0.131011 0.130621 0.13071 0.131011 0.131079 0.13071 0.130771 0.130621 0.13071 0.130327 0.130409 0.13071 0.130771 0.130409 0.130463 0.131079 0.131125 0.130771 0.130812 0.131125 0.131157 0.130812 0.130839 0.130771 0.130812 0.130463 0.130499 0.130812 0.130839 0.130499 0.130521 0.131792 0.131822 0.131475 0.1315 0.131822 0.131842 0.1315 0.131518 0.131475 0.1315 0.131157 0.131179 0.1315 0.131518 0.131179 0.131193 0.131842 0.131857 0.131518 0.131529 0.131857 0.131867 0.131529 0.131537 0.131518 0.131529 0.131193 0.131202 0.131529 0.131537 0.131202 0.131208 0.131157 0.131179 0.130839 0.130857 0.131179 0.131193 0.130857 0.130868 0.130839 0.130857 0.130521 0.130535 0.130857 0.130868 0.130535 0.130543 0.131193 0.131202 0.130868 0.130875 0.131202 0.131208 0.130875 0.130879 0.130868 0.130875 0.130543 0.130547 0.130875 0.130879 0.130547 0.130549 0 0.0162107 0 0.0160639 0.0162107 0.0315427 0.0160639 0.031247 0 0.0160639 0 0.0159388 0.0160639 0.031247 0.0159388 0.0309932 0.0315427 0.046028 0.031247 0.0455891 0.046028 0.0594557 0.0455891 0.0589105 0.031247 0.0455891 0.0309932 0.045206 0.0455891 0.0589105 0.045206 0.0584238 0 0.0159388 0 0.0158311 0.0159388 0.0309932 0.0158311 0.0307735 0 0.0158311 0 0.0157376 0.0158311 0.0307735 0.0157376 0.0305817 0.0309932 0.045206 0.0307735 0.0448694 0.045206 0.0584238 0.0448694 0.0579878 0.0307735 0.0448694 0.0305817 0.0445719 0.0448694 0.0579878 0.0445719 0.0575958 0.0594557 0.0715309 0.0589105 0.070943 0.0715309 0.0820708 0.070943 0.0815029 0.0589105 0.070943 0.0584238 0.0704046 0.070943 0.0815029 0.0704046 0.0809686 0.0820708 0.0910755 0.0815029 0.0905663 0.0910755 0.0986675 0.0905663 0.0982294 0.0815029 0.0905663 0.0809686 0.0900747 0.0905663 0.0982294 0.0900747 0.0977963 0.0584238 0.0704046 0.0579878 0.069911 0.0704046 0.0809686 0.069911 0.0804668 0.0579878 0.069911 0.0575958 0.0694581 0.069911 0.0804668 0.0694581 0.0799959 0.0809686 0.0900747 0.0804668 0.0896017 0.0900747 0.0977963 0.0896017 0.0973704 0.0804668 0.0896017 0.0799959 0.0891479 0.0896017 0.0973704 0.0891479 0.0969533 0 0.0157376 0 0.0156554 0.0157376 0.0305817 0.0156554 0.0304127 0 0.0156554 0 0.0155826 0.0156554 0.0304127 0.0155826 0.0302626 0.0305817 0.0445719 0.0304127 0.0443073 0.0445719 0.0575958 0.0443073 0.0572419 0.0304127 0.0443073 0.0302626 0.0440704 0.044307