# vtk DataFile Version 3.0
#This file was generated by the deal.II library on 2022/1/6 at 22:38:56
ASCII
DATASET UNSTRUCTURED_GRID

POINTS 16384 double
0 0 0
0.1875 0 0
0 0.046875 0
0.1875 0.046875 0
0.1875 0 0
0.375 0 0
0.1875 0.046875 0
0.375 0.046875 0
0 0.046875 0
0.1875 0.046875 0
0 0.09375 0
0.1875 0.09375 0
0.1875 0.046875 0
0.375 0.046875 0
0.1875 0.09375 0
0.375 0.09375 0
0.375 0 0
0.5625 0 0
0.375 0.046875 0
0.5625 0.046875 0
0.5625 0 0
0.75 0 0
0.5625 0.046875 0
0.75 0.046875 0
0.375 0.046875 0
0.5625 0.046875 0
0.375 0.09375 0
0.5625 0.09375 0
0.5625 0.046875 0
0.75 0.046875 0
0.5625 0.09375 0
0.75 0.09375 0
0 0.09375 0
0.1875 0.09375 0
0 0.140625 0
0.1875 0.140625 0
0.1875 0.09375 0
0.375 0.09375 0
0.1875 0.140625 0
0.375 0.140625 0
0 0.140625 0
0.1875 0.140625 0
0 0.1875 0
0.1875 0.1875 0
0.1875 0.140625 0
0.375 0.140625 0
0.1875 0.1875 0
0.375 0.1875 0
0.375 0.09375 0
0.5625 0.09375 0
0.375 0.140625 0
0.5625 0.140625 0
0.5625 0.09375 0
0.75 0.09375 0
0.5625 0.140625 0
0.75 0.140625 0
0.375 0.140625 0
0.5625 0.140625 0
0.375 0.1875 0
0.5625 0.1875 0
0.5625 0.140625 0
0.75 0.140625 0
0.5625 0.1875 0
0.75 0.1875 0
0.75 0 0
0.9375 0 0
0.75 0.046875 0
0.9375 0.046875 0
0.9375 0 0
1.125 0 0
0.9375 0.046875 0
1.125 0.046875 0
0.75 0.046875 0
0.9375 0.046875 0
0.75 0.09375 0
0.9375 0.09375 0
0.9375 0.046875 0
1.125 0.046875 0
0.9375 0.09375 0
1.125 0.09375 0
1.125 0 0
1.3125 0 0
1.125 0.046875 0
1.3125 0.046875 0
1.3125 0 0
1.5 0 0
1.3125 0.046875 0
1.5 0.046875 0
1.125 0.046875 0
1.3125 0.046875 0
1.125 0.09375 0
1.3125 0.09375 0
1.3125 0.046875 0
1.5 0.046875 0
1.3125 0.09375 0
1.5 0.09375 0
0.75 0.09375 0
0.9375 0.09375 0
0.75 0.140625 0
0.9375 0.140625 0
0.9375 0.09375 0
1.125 0.09375 0
0.9375 0.140625 0
1.125 0.140625 0
0.75 0.140625 0
0.9375 0.140625 0
0.75 0.1875 0
0.9375 0.1875 0
0.9375 0.140625 0
1.125 0.140625 0
0.9375 0.1875 0
1.125 0.1875 0
1.125 0.09375 0
1.3125 0.09375 0
1.125 0.140625 0
1.3125 0.140625 0
1.3125 0.09375 0
1.5 0.09375 0
1.3125 0.140625 0
1.5 0.140625 0
1.125 0.140625 0
1.3125 0.140625 0
1.125 0.1875 0
1.3125 0.1875 0
1.3125 0.140625 0
1.5 0.140625 0
1.3125 0.1875 0
1.5 0.1875 0
0 0.1875 0
0.1875 0.1875 0
0 0.234375 0
0.1875 0.234375 0
0.1875 0.1875 0
0.375 0.1875 0
0.1875 0.234375 0
0.375 0.234375 0
0 0.234375 0
0.1875 0.234375 0
0 0.28125 0
0.1875 0.28125 0
0.1875 0.234375 0
0.375 0.234375 0
0.1875 0.28125 0
0.375 0.28125 0
0.375 0.1875 0
0.5625 0.1875 0
0.375 0.234375 0
0.5625 0.234375 0
0.5625 0.1875 0
0.75 0.1875 0
0.5625 0.234375 0
0.75 0.234375 0
0.375 0.234375 0
0.5625 0.234375 0
0.375 0.28125 0
0.5625 0.28125 0
0.5625 0.234375 0
0.75 0.234375 0
0.5625 0.28125 0
0.75 0.28125 0
0 0.28125 0
0.1875 0.28125 0
0 0.328125 0
0.1875 0.328125 0
0.1875 0.28125 0
0.375 0.28125 0
0.1875 0.328125 0
0.375 0.328125 0
0 0.328125 0
0.1875 0.328125 0
0 0.375 0
0.1875 0.375 0
0.1875 0.328125 0
0.375 0.328125 0
0.1875 0.375 0
0.375 0.375 0
0.375 0.28125 0
0.5625 0.28125 0
0.375 0.328125 0
0.5625 0.328125 0
0.5625 0.28125 0
0.75 0.28125 0
0.5625 0.328125 0
0.75 0.328125 0
0.375 0.328125 0
0.5625 0.328125 0
0.375 0.375 0
0.5625 0.375 0
0.5625 0.328125 0
0.75 0.328125 0
0.5625 0.375 0
0.75 0.375 0
0.75 0.1875 0
0.9375 0.1875 0
0.75 0.234375 0
0.9375 0.234375 0
0.9375 0.1875 0
1.125 0.1875 0
0.9375 0.234375 0
1.125 0.234375 0
0.75 0.234375 0
0.9375 0.234375 0
0.75 0.28125 0
0.9375 0.28125 0
0.9375 0.234375 0
1.125 0.234375 0
0.9375 0.28125 0
1.125 0.28125 0
1.125 0.1875 0
1.3125 0.1875 0
1.125 0.234375 0
1.3125 0.234375 0
1.3125 0.1875 0
1.5 0.1875 0
1.3125 0.234375 0
1.5 0.234375 0
1.125 0.234375 0
1.3125 0.234375 0
1.125 0.28125 0
1.3125 0.28125 0
1.3125 0.234375 0
1.5 0.234375 0
1.3125 0.28125 0
1.5 0.28125 0
0.75 0.28125 0
0.9375 0.28125 0
0.75 0.328125 0
0.9375 0.328125 0
0.9375 0.28125 0
1.125 0.28125 0
0.9375 0.328125 0
1.125 0.328125 0
0.75 0.328125 0
0.9375 0.328125 0
0.75 0.375 0
0.9375 0.375 0
0.9375 0.328125 0
1.125 0.328125 0
0.9375 0.375 0
1.125 0.375 0
1.125 0.28125 0
1.3125 0.28125 0
1.125 0.328125 0
1.3125 0.328125 0
1.3125 0.28125 0
1.5 0.28125 0
1.3125 0.328125 0
1.5 0.328125 0
1.125 0.328125 0
1.3125 0.328125 0
1.125 0.375 0
1.3125 0.375 0
1.3125 0.328125 0
1.5 0.328125 0
1.3125 0.375 0
1.5 0.375 0
1.5 0 0
1.6875 0 0
1.5 0.046875 0
1.6875 0.046875 0
1.6875 0 0
1.875 0 0
1.6875 0.046875 0
1.875 0.046875 0
1.5 0.046875 0
1.6875 0.046875 0
1.5 0.09375 0
1.6875 0.09375 0
1.6875 0.046875 0
1.875 0.046875 0
1.6875 0.09375 0
1.875 0.09375 0
1.875 0 0
2.0625 0 0
1.875 0.046875 0
2.0625 0.046875 0
2.0625 0 0
2.25 0 0
2.0625 0.046875 0
2.25 0.046875 0
1.875 0.046875 0
2.0625 0.046875 0
1.875 0.09375 0
2.0625 0.09375 0
2.0625 0.046875 0
2.25 0.046875 0
2.0625 0.09375 0
2.25 0.09375 0
1.5 0.09375 0
1.6875 0.09375 0
1.5 0.140625 0
1.6875 0.140625 0
1.6875 0.09375 0
1.875 0.09375 0
1.6875 0.140625 0
1.875 0.140625 0
1.5 0.140625 0
1.6875 0.140625 0
1.5 0.1875 0
1.6875 0.1875 0
1.6875 0.140625 0
1.875 0.140625 0
1.6875 0.1875 0
1.875 0.1875 0
1.875 0.09375 0
2.0625 0.09375 0
1.875 0.140625 0
2.0625 0.140625 0
2.0625 0.09375 0
2.25 0.09375 0
2.0625 0.140625 0
2.25 0.140625 0
1.875 0.140625 0
2.0625 0.140625 0
1.875 0.1875 0
2.0625 0.1875 0
2.0625 0.140625 0
2.25 0.140625 0
2.0625 0.1875 0
2.25 0.1875 0
2.25 0 0
2.4375 0 0
2.25 0.046875 0
2.4375 0.046875 0
2.4375 0 0
2.625 0 0
2.4375 0.046875 0
2.625 0.046875 0
2.25 0.046875 0
2.4375 0.046875 0
2.25 0.09375 0
2.4375 0.09375 0
2.4375 0.046875 0
2.625 0.046875 0
2.4375 0.09375 0
2.625 0.09375 0
2.625 0 0
2.8125 0 0
2.625 0.046875 0
2.8125 0.046875 0
2.8125 0 0
3 0 0
2.8125 0.046875 0
3 0.046875 0
2.625 0.046875 0
2.8125 0.046875 0
2.625 0.09375 0
2.8125 0.09375 0
2.8125 0.046875 0
3 0.046875 0
2.8125 0.09375 0
3 0.09375 0
2.25 0.09375 0
2.4375 0.09375 0
2.25 0.140625 0
2.4375 0.140625 0
2.4375 0.09375 0
2.625 0.09375 0
2.4375 0.140625 0
2.625 0.140625 0
2.25 0.140625 0
2.4375 0.140625 0
2.25 0.1875 0
2.4375 0.1875 0
2.4375 0.140625 0
2.625 0.140625 0
2.4375 0.1875 0
2.625 0.1875 0
2.625 0.09375 0
2.8125 0.09375 0
2.625 0.140625 0
2.8125 0.140625 0
2.8125 0.09375 0
3 0.09375 0
2.8125 0.140625 0
3 0.140625 0
2.625 0.140625 0
2.8125 0.140625 0
2.625 0.1875 0
2.8125 0.1875 0
2.8125 0.140625 0
3 0.140625 0
2.8125 0.1875 0
3 0.1875 0
1.5 0.1875 0
1.6875 0.1875 0
1.5 0.234375 0
1.6875 0.234375 0
1.6875 0.1875 0
1.875 0.1875 0
1.6875 0.234375 0
1.875 0.234375 0
1.5 0.234375 0
1.6875 0.234375 0
1.5 0.28125 0
1.6875 0.28125 0
1.6875 0.234375 0
1.875 0.234375 0
1.6875 0.28125 0
1.875 0.28125 0
1.875 0.1875 0
2.0625 0.1875 0
1.875 0.234375 0
2.0625 0.234375 0
2.0625 0.1875 0
2.25 0.1875 0
2.0625 0.234375 0
2.25 0.234375 0
1.875 0.234375 0
2.0625 0.234375 0
1.875 0.28125 0
2.0625 0.28125 0
2.0625 0.234375 0
2.25 0.234375 0
2.0625 0.28125 0
2.25 0.28125 0
1.5 0.28125 0
1.6875 0.28125 0
1.5 0.328125 0
1.6875 0.328125 0
1.6875 0.28125 0
1.875 0.28125 0
1.6875 0.328125 0
1.875 0.328125 0
1.5 0.328125 0
1.6875 0.328125 0
1.5 0.375 0
1.6875 0.375 0
1.6875 0.328125 0
1.875 0.328125 0
1.6875 0.375 0
1.875 0.375 0
1.875 0.28125 0
2.0625 0.28125 0
1.875 0.328125 0
2.0625 0.328125 0
2.0625 0.28125 0
2.25 0.28125 0
2.0625 0.328125 0
2.25 0.328125 0
1.875 0.328125 0
2.0625 0.328125 0
1.875 0.375 0
2.0625 0.375 0
2.0625 0.328125 0
2.25 0.328125 0
2.0625 0.375 0
2.25 0.375 0
2.25 0.1875 0
2.4375 0.1875 0
2.25 0.234375 0
2.4375 0.234375 0
2.4375 0.1875 0
2.625 0.1875 0
2.4375 0.234375 0
2.625 0.234375 0
2.25 0.234375 0
2.4375 0.234375 0
2.25 0.28125 0
2.4375 0.28125 0
2.4375 0.234375 0
2.625 0.234375 0
2.4375 0.28125 0
2.625 0.28125 0
2.625 0.1875 0
2.8125 0.1875 0
2.625 0.234375 0
2.8125 0.234375 0
2.8125 0.1875 0
3 0.1875 0
2.8125 0.234375 0
3 0.234375 0
2.625 0.234375 0
2.8125 0.234375 0
2.625 0.28125 0
2.8125 0.28125 0
2.8125 0.234375 0
3 0.234375 0
2.8125 0.28125 0
3 0.28125 0
2.25 0.28125 0
2.4375 0.28125 0
2.25 0.328125 0
2.4375 0.328125 0
2.4375 0.28125 0
2.625 0.28125 0
2.4375 0.328125 0
2.625 0.328125 0
2.25 0.328125 0
2.4375 0.328125 0
2.25 0.375 0
2.4375 0.375 0
2.4375 0.328125 0
2.625 0.328125 0
2.4375 0.375 0
2.625 0.375 0
2.625 0.28125 0
2.8125 0.28125 0
2.625 0.328125 0
2.8125 0.328125 0
2.8125 0.28125 0
3 0.28125 0
2.8125 0.328125 0
3 0.328125 0
2.625 0.328125 0
2.8125 0.328125 0
2.625 0.375 0
2.8125 0.375 0
2.8125 0.328125 0
3 0.328125 0
2.8125 0.375 0
3 0.375 0
0 0.375 0
0.1875 0.375 0
0 0.421875 0
0.1875 0.421875 0
0.1875 0.375 0
0.375 0.375 0
0.1875 0.421875 0
0.375 0.421875 0
0 0.421875 0
0.1875 0.421875 0
0 0.46875 0
0.1875 0.46875 0
0.1875 0.421875 0
0.375 0.421875 0
0.1875 0.46875 0
0.375 0.46875 0
0.375 0.375 0
0.5625 0.375 0
0.375 0.421875 0
0.5625 0.421875 0
0.5625 0.375 0
0.75 0.375 0
0.5625 0.421875 0
0.75 0.421875 0
0.375 0.421875 0
0.5625 0.421875 0
0.375 0.46875 0
0.5625 0.46875 0
0.5625 0.421875 0
0.75 0.421875 0
0.5625 0.46875 0
0.75 0.46875 0
0 0.46875 0
0.1875 0.46875 0
0 0.515625 0
0.1875 0.515625 0
0.1875 0.46875 0
0.375 0.46875 0
0.1875 0.515625 0
0.375 0.515625 0
0 0.515625 0
0.1875 0.515625 0
0 0.5625 0
0.1875 0.5625 0
0.1875 0.515625 0
0.375 0.515625 0
0.1875 0.5625 0
0.375 0.5625 0
0.375 0.46875 0
0.5625 0.46875 0
0.375 0.515625 0
0.5625 0.515625 0
0.5625 0.46875 0
0.75 0.46875 0
0.5625 0.515625 0
0.75 0.515625 0
0.375 0.515625 0
0.5625 0.515625 0
0.375 0.5625 0
0.5625 0.5625 0
0.5625 0.515625 0
0.75 0.515625 0
0.5625 0.5625 0
0.75 0.5625 0
0.75 0.375 0
0.9375 0.375 0
0.75 0.421875 0
0.9375 0.421875 0
0.9375 0.375 0
1.125 0.375 0
0.9375 0.421875 0
1.125 0.421875 0
0.75 0.421875 0
0.9375 0.421875 0
0.75 0.46875 0
0.9375 0.46875 0
0.9375 0.421875 0
1.125 0.421875 0
0.9375 0.46875 0
1.125 0.46875 0
1.125 0.375 0
1.3125 0.375 0
1.125 0.421875 0
1.3125 0.421875 0
1.3125 0.375 0
1.5 0.375 0
1.3125 0.421875 0
1.5 0.421875 0
1.125 0.421875 0
1.3125 0.421875 0
1.125 0.46875 0
1.3125 0.46875 0
1.3125 0.421875 0
1.5 0.421875 0
1.3125 0.46875 0
1.5 0.46875 0
0.75 0.46875 0
0.9375 0.46875 0
0.75 0.515625 0
0.9375 0.515625 0
0.9375 0.46875 0
1.125 0.46875 0
0.9375 0.515625 0
1.125 0.515625 0
0.75 0.515625 0
0.9375 0.515625 0
[...]
POINT_DATA 16384
SCALARS x_displacement double 1
LOOKUP_TABLE default
0 0.0307469 0 0.0278749 0.0307469 0.0535656 0.0278749 0.0525318 0 0.0278749 0 0.0258755 0.0278749 0.0525318 0.0258755 0.0503134 0.0535656 0.066168 0.0525318 0.0654511 0.066168 0.068419 0.0654511 0.0680879 0.0525318 0.0654511 0.0503134 0.0639665 0.0654511 0.0680879 0.0639665 0.0672636 0 0.0258755 0 0.0241778 0.0258755 0.0503134 0.0241778 0.0471994 0 0.0241778 0 0.0227186 0.0241778 0.0471994 0.0227186 0.0439405 0.0503134 0.0639665 0.0471994 0.0616263 0.0639665 0.0672636 0.0616263 0.0659859 0.0471994 0.0616263 0.0439405 0.0582873 0.0616263 0.0659859 0.0582873 0.064391 0.068419 0.0697951 0.0680879 0.0697966 0.0697951 0.0714305 0.0697966 0.0716359 0.0680879 0.0697966 0.0672636 0.0695298 0.0697966 0.0716359 0.0695298 0.0716476 0.0714305 0.0730359 0.0716359 0.0732542 0.0730359 0.0744028 0.0732542 0.0745712 0.0716359 0.0732542 0.0716476 0.0733485 0.0732542 0.0745712 0.0733485 0.0746578 0.0672636 0.0695298 0.0659859 0.0690366 0.0695298 0.0716476 0.0690366 0.0714929 0.0659859 0.0690366 0.064391 0.068365 0.0690366 0.0714929 0.068365 0.0711934 0.0716476 0.0733485 0.0714929 0.0733266 0.0733485 0.0746578 0.0733266 0.0746671 0.0714929 0.0733266 0.0711934 0.073201 0.0733266 0.0746671 0.073201 0.0746036 0 0.0227186 0 0.0214629 0.0227186 0.0439405 0.0214629 0.0408431 0 0.0214629 0 0.0203411 0.0214629 0.0408431 0.0203411 0.0383888 0.0439405 0.0582873 0.0408431 0.0548353 0.0582873 0.064391 0.0548353 0.0627182 0.0408431 0.0548353 0.0383888 0.0520814 0.0548353 0.0627182 0.0520814 0.0610071 0 0.0203411 0 0.0193881 0.0203411 0.0383888 0.0193881 0.0364431 0 0.0193881 0 0.0185996 0.0193881 0.0364431 0.0185996 0.0348927 0.0383888 0.0520814 0.0364431 0.0498879 0.0520814 0.0610071 0.0498879 0.0593883 0.0364431 0.0498879 0.0348927 0.0480989 0.0498879 0.0593883 0.0480989 0.0579139 0.064391 0.068365 0.0627182 0.0675394 0.068365 0.0711934 0.0675394 0.0707768 0.0627182 0.0675394 0.0610071 0.0666189 0.0675394 0.0707768 0.0666189 0.0702646 0.0711934 0.073201 0.0707768 0.0729837 0.073201 0.0746036 0.0729837 0.0744735 0.0707768 0.0729837 0.0702646 0.0726879 0.0729837 0.0744735 0.0726879 0.0742833 0.0610071 0.0666189 0.0593883 0.0656384 0.0666189 0.0702646 0.0656384 0.0696813 0.0593883 0.0656384 0.0579139 0.0646411 0.0656384 0.0696813 0.0646411 0.0690468 0.0702646 0.0726879 0.0696813 0.0723261 0.0726879 0.0742833 0.0723261 0.0740402 0.0696813 0.0723261 0.0690468 0.0719113 0.0723261 0.0740402 0.0719113 0.0737511 0.0744028 0.0755086 0.0745712 0.0756028 0.0755086 0.0763879 0.0756028 0.0764023 0.0745712 0.0756028 0.0746578 0.0756446 0.0756028 0.0764023 0.0756446 0.0763849 0.0763879 0.0770865 0.0764023 0.077026 0.0770865 0.0776459 0.077026 0.0775201 0.0764023 0.077026 0.0763849 0.0769478 0.077026 0.0775201 0.0769478 0.0773861 0.0746578 0.0756446 0.0746671 0.0756352 0.0756446 0.0763849 0.0756352 0.0763354 0.0746671 0.0756352 0.0746036 0.0755767 0.0756352 0.0763354 0.0755767 0.0762539 0.0763849 0.0769478 0.0763354 0.0768508 0.0769478 0.0773861 0.0768508 0.0772424 0.0763354 0.0768508 0.0762539 0.0767344 0.0768508 0.0772424 0.0767344 0.0770881 0.0776459 0.0780984 0.0775201 0.0779187 0.0780984 0.0784675 0.0779187 0.0782449 0.0775201 0.0779187 0.0773861 0.0777367 0.0779187 0.0782449 0.0777367 0.0780236 0.0784675 0.0787697 0.0782449 0.078514 0.0787697 0.0790166 0.078514 0.078736 0.0782449 0.078514 0.0780236 0.0782615 0.078514 0.078736 0.0782615 0.0784594 0.0773861 0.0777367 0.0772424 0.0775511 0.0777367 0.0780236 0.0775511 0.0778023 0.0772424 0.0775511 0.0770881 0.0773606 0.0775511 0.0778023 0.0773606 0.0775798 0.0780236 0.0782615 0.0778023 0.078011 0.0782615 0.0784594 0.078011 0.0781859 0.0778023 0.078011 0.0775798 0.0777616 0.078011 0.0781859 0.0777616 0.0779146 0.0746036 0.0755767 0.0744735 0.0754717 0.0755767 0.0762539 0.0754717 0.0761413 0.0744735 0.0754717 0.0742833 0.0753233 0.0754717 0.0761413 0.0753233 0.0759988 0.0762539 0.0767344 0.0761413 0.0765983 0.0767344 0.0770881 0.0765983 0.0769222 0.0761413 0.0765983 0.0759988 0.0764426 0.0765983 0.0769222 0.0764426 0.0767443 0.0742833 0.0753233 0.0740402 0.0751351 0.0753233 0.0759988 0.0751351 0.0758279 0.0740402 0.0751351 0.0737511 0.074911 0.0751351 0.0758279 0.074911 0.0756305 0.0759988 0.0764426 0.0758279 0.0762677 0.0764426 0.0767443 0.0762677 0.0765542 0.0758279 0.0762677 0.0756305 0.0760743 0.0762677 0.0765542 0.0760743 0.0763519 0.0770881 0.0773606 0.0769222 0.0771642 0.0773606 0.0775798 0.0771642 0.0773552 0.0769222 0.0771642 0.0767443 0.0769613 0.0771642 0.0773552 0.0769613 0.0771277 0.0775798 0.0777616 0.0773552 0.0775124 0.0777616 0.0779146 0.0775124 0.0776448 0.0773552 0.0775124 0.0771277 0.0772626 0.0775124 0.0776448 0.0772626 0.0773757 0.0767443 0.0769613 0.0765542 0.0767512 0.0769613 0.0771277 0.0767512 0.0768965 0.0765542 0.0767512 0.0763519 0.0765336 0.0767512 0.0768965 0.0765336 0.0766612 0.0771277 0.0772626 0.0768965 0.0770115 0.0772626 0.0773757 0.0770115 0.0771069 0.0768965 0.0770115 0.0766612 0.0767585 0.0770115 0.0771069 0.0767585 0.0768377 0 0.0185996 0 0.017956 0.0185996 0.0348927 0.017956 0.0336488 0 0.017956 0 0.0174332 0.017956 0.0336488 0.0174332 0.0326432 0.0348927 0.0480989 0.0336488 0.0466194 0.0480989 0.0579139 0.0466194 0.0565919 0.0336488 0.0466194 0.0326432 0.0453841 0.0466194 0.0565919 0.0453841 0.0554146 0 0.0174332 0 0.0170084 0.0174332 0.0326432 0.0170084 0.0318243 0 0.0170084 0 0.0166618 0.0170084 0.0318243 0.0166618 0.0311523 0.0326432 0.0453841 0.0318243 0.0443449 0.0453841 0.0554146 0.0443449 0.0543695 0.0318243 0.0443449 0.0311523 0.0434651 0.0443449 0.0543695 0.0434651 0.0534424 0.0579139 0.0646411 0.0565919 0.0636612 0.0646411 0.0690468 0.0636612 0.06838 0.0565919 0.0636612 0.0554146 0.0627204 0.0636612 0.06838 0.0627204 0.0676984 0.0690468 0.0719113 0.06838 0.0714551 0.0719113 0.0737511 0.0714551 0.0734233 0.06838 0.0714551 0.0676984 0.0709685 0.0714551 0.0734233 0.0709685 0.0730637 0.0554146 0.0627204 0.0543695 0.0618309 0.0627204 0.0676984 0.0618309 0.0670164 0.0543695 0.0618309 0.0534424 0.0609986 0.0618309 0.0670164 0.0609986 0.0663451 0.0676984 0.0709685 0.0670164 0.0704613 0.0709685 0.0730637 0.0704613 0.0726787 0.0670164 0.0704613 0.0663451 0.0699424 0.0704613 0.0726787 0.0699424 0.0722745 0 0.0166618 0 0.0163773 0.0166618 0.0311523 0.0163773 0.0305966 0 0.0163773 0 0.0161422 0.0163773 0.0305966 0.0161422 0.0301332 0.0311523 0.0434651 0.0305966 0.0427157 0.0434651 0.0534424 0.0427157 0.0526199 0.0305966 0.0427157 0.0301332 0.0420736 0.0427157 0.0526199 0.0420736 0.0518892 0 0.0161422 0 0.0159462 0.0161422 0.0301332 0.0159462 0.0297435 0 0.0159462 0 0.0157813 0.0159462 0.0297435 0.0157813 0.029413 0.0301332 0.0420736 0.0297435 0.04152 0.0420736 0.0518892 0.04152 0.0512388 0.0297435 0.04152 0.029413 0.04104 0.04152 0.0512388 0.04104 0.0506586 0.0534424 0.0609986 0.0526199 0.060225 0.0609986 0.0663451 0.060225 0.0656924 0.0526199 0.060225 0.0518892 0.0595092 0.060225 0.0656924 0.0595092 0.0650636 0.0663451 0.0699424 0.0656924 0.0694191 0.0699424 0.0722745 0.0694191 0.0718564 0.0656924 0.0694191 0.0650636 0.0688978 0.0694191 0.0718564 0.0688978 0.0714295 0.0518892 0.0595092 0.0512388 0.0588489 0.0595092 0.0650636 0.0588489 0.0644622 0.0512388 0.0588489 0.0506586 0.0582408 0.0588489 0.0644622 0.0582408 0.0638901 0.0650636 0.0688978 0.0644622 0.0683833 0.0688978 0.0714295 0.0683833 0.0709981 0.0644622 0.0683833 0.0638901 0.0678793 0.0683833 0.0709981 0.0678793 0.0705658 0.0737511 0.074911 0.0734233 0.074655 0.074911 0.0756305 0.074655 0.0754088 0.0734233 0.074655 0.0730637 0.0743711 0.074655 0.0754088 0.0743711 0.0751649 0.0756305 0.0760743 0.0754088 0.0758632 0.0760743 0.0763519 0.0758632 0.0761376 0.0754088 0.0758632 0.0751649 0.0756356 0.0758632 0.0761376 0.0756356 0.0759115 0.0730637 0.0743711 0.0726787 0.0740634 0.0743711 0.0751649 0.0740634 0.0749011 0.0726787 0.0740634 0.0722745 0.0737358 0.0740634 0.0749011 0.0737358 0.0746199 0.0751649 0.0756356 0.0749011 0.0753927 0.0756356 0.0759115 0.0753927 0.0756742 0.0749011 0.0753927 0.0746199 0.0751357 0.0753927 0.0756742 0.0751357 0.0754263 0.0763519 0.0765336 0.0761376 0.0763082 0.0765336 0.0766612 0.0763082 0.0764213 0.0761376 0.0763082 0.0759115 0.076075 0.0763082 0.0764213 0.076075 0.0761765 0.0766612 0.0767585 0.0764213 0.0765032 0.0767585 0.0768377 0.0765032 0.0765676 0.0764213 0.0765032 0.0761765 0.0762451 0.0765032 0.0765676 0.0762451 0.0762962 0.0759115 0.076075 0.0756742 0.075834 0.076075 0.0761765 0.075834 0.0759266 0.0756742 0.075834 0.0754263 0.0755854 0.075834 0.0759266 0.0755854 0.0756715 0.0761765 0.0762451 0.0759266 0.0759839 0.0762451 0.0762962 0.0759839 0.0760231 0.0759266 0.0759839 0.0756715 0.0757194 0.0759839 0.0760231 0.0757194 0.0757481 0.0722745 0.0737358 0.0718564 0.0733922 0.0737358 0.0746199 0.0733922 0.0743236 0.0718564 0.0733922 0.0714295 0.0730358 0.0733922 0.0743236 0.0730358 0.0740145 0.0746199 0.0751357 0.0743236 0.074866 0.0751357 0.0754263 0.074866 0.0751684 0.0743236 0.074866 0.0740145 0.074585 0.074866 0.0751684 0.074585 0.0749012 0.0714295 0.0730358 0.0709981 0.0726701 0.0730358 0.0740145 0.0726701 0.0736948 0.0709981 0.0726701 0.0705658 0.0722978 0.0726701 0.0736948 0.0722978 0.0733664 0.0740145 0.074585 0.0736948 0.074294 0.074585 0.0749012 0.074294 0.0746256 0.0736948 0.074294 0.0733664 0.0739944 0.074294 0.0746256 0.0739944 0.0743422 0.0754263 0.0755854 0.0751684 0.0753293 0.0755854 0.0756715 0.0753293 0.0754112 0.0751684 0.0753293 0.0749012 0.0750661 0.0753293 0.0754112 0.0750661 0.0751456 0.0756715 0.0757194 0.0754112 0.0754513 0.0757194 0.0757481 0.0754513 0.0754708 0.0754112 0.0754513 0.0751456 0.0751795 0.0754513 0.0754708 0.0751795 0.075191 0.0749012 0.0750661 0.0746256 0.0747961 0.0750661 0.0751456 0.0747961 0.0748748 0.0746256 0.0747961 0.0743422 0.0745198 0.0747961 0.0748748 0.0745198 0.0745989 0.0751456 0.0751795 0.0748748 0.0749039 0.0751795 0.075191 0.0749039 0.0749085 0.0748748 0.0749039 0.0745989 0.0746246 0.0749039 0.0749085 0.0746246 0.0746233 0.0790166 0.0792171 0.078736 0.0789182 0.0792171 0.0793782 0.0789182 0.0790661 0.078736 0.0789182 0.0784594 0.0786234 0.0789182 0.0790661 0.0786234 0.0787579 0.0793782 0.0795059 0.0790661 0.0791846 0.0795059 0.0796058 0.0791846 0.0792781 0.0790661 0.0791846 0.0787579 0.0788667 0.0791846 0.0792781 0.0788667 0.0789534 0.0784594 0.0786234 0.0781859 0.078332 0.0786234 0.0787579 0.078332 0.0784531 0.0781859 0.078332 0.0779146 0.0780434 0.078332 0.0784531 0.0780434 0.0781511 0.0787579 0.0788667 0.0784531 0.0785519 0.0788667 0.0789534 0.0785519 0.0786313 0.0784531 0.0785519 0.0781511 0.0782398 0.0785519 0.0786313 0.0782398 0.0783116 0.0796058 0.0796827 0.0792781 0.0793507 0.0796827 0.0797407 0.0793507 0.0794061 0.0792781 0.0793507 0.0789534 0.0790213 0.0793507 0.0794061 0.0790213 0.0790735 0.0797407 0.0797838 0.0794061 0.0794475 0.0797838 0.079815 0.0794475 0.0794779 0.0794061 0.0794475 0.0790735 0.0791129 0.0794475 0.0794779 0.0791129 0.0791421 0.0789534 0.0790213 0.0786313 0.0786941 0.0790213 0.0790735 0.0786941 0.0787427 0.0786313 0.0786941 0.0783116 0.0783689 0.0786941 0.0787427 0.0783689 0.0784136 0.0790735 0.0791129 0.0787427 0.0787797 0.0791129 0.0791421 0.0787797 0.0788074 0.0787427 0.0787797 0.0784136 0.078448 0.0787797 0.0788074 0.078448 0.0784738 0.0779146 0.0780434 0.0776448 0.0777569 0.0780434 0.0781511 0.0777569 0.0778514 0.0776448 0.0777569 0.0773757 0.077472 0.0777569 0.0778514 0.077472 0.0775535 0.0781511 0.0782398 0.0778514 0.0779299 0.0782398 0.0783116 0.0779299 0.077994 0.0778514 0.0779299 0.0775535 0.0776219 0.0779299 0.077994 0.0776219 0.0776782 0.0773757 0.077472 0.0771069 0.077188 0.077472 0.0775535 0.077188 0.0772571 0.0771069 0.077188 0.0768377 0.0769046 0.077188 0.0772571 0.0769046 0.0769617 0.0775535 0.0776219 0.0772571 0.0773154 0.0776219 0.0776782 0.0773154 0.0773639 0.0772571 0.0773154 0.0769617 0.0770102 0.0773154 0.0773639 0.0770102 0.0770508 0.0783116 0.0783689 0.077994 0.0780455 0.0783689 0.0784136 0.0780455 0.0780861 0.077994 0.0780455 0.0776782 0.0777237 0.0780455 0.0780861 0.0777237 0.0777599 0.0784136 0.078448 0.0780861 0.0781174 0.078448 0.0784738 0.0781174 0.0781412 0.0780861 0.0781174 0.0777599 0.077788 0.0781174 0.0781412 0.077788 0.0778095 0.0776782 0.0777237 0.0773639 0.0774033 0.0777237 0.0777599 0.0774033 0.0774349 0.0773639 0.0774033 0.0770508 0.0770841 0.0774033 0.0774349 0.0770841 0.0771109 0.0777599 0.077788 0.0774349 0.0774596 0.077788 0.0778095 0.0774596 0.0774787 0.0774349 0.0774596 0.0771109 0.0771322 0.0774596 0.0774787 0.0771322 0.0771486 0.079815 0.0798372 0.0794779 0.0794997 0.0798372 0.0798524 0.0794997 0.0795149 0.0794779 0.0794997 0.0791421 0.0791632 0.0794997 0.0795149 0.0791632 0.0791781 0.0798524 0.0798626 0.0795149 0.0795252 0.0798626 0.079869 0.0795252 0.0795319 0.0795149 0.0795252 0.0791781 0.0791884 0.0795252 0.0795319 0.0791884 0.0791951 0.0791421 0.0791632 0.0788074 0.0788276 0.0791632 0.0791781 0.0788276 0.078842 0.0788074 0.0788276 0.0784738 0.0784928 0.0788276 0.078842 0.0784928 0.0785065 0.0791781 0.0791884 0.078842 0.078852 0.0791884 0.0791951 0.078852 0.0788587 0.078842 0.078852 0.0785065 0.0785161 0.078852 0.0788587 0.0785161 0.0785227 0.079869 0.0798728 0.0795319 0.0795359 0.0798728 0.0798747 0.0795359 0.0795382 0.0795319 0.0795359 0.0791951 0.0791994 0.0795359 0.0795382 0.0791994 0.0792018 0.0798747 0.0798755 0.0795382 0.0795392 0.0798755 0.0798755 0.0795392 0.0795394 0.0795382 0.0795392 0.0792018 0.079203 0.0795392 0.0795394 0.079203 0.0792035 0.0791951 0.0791994 0.0788587 0.078863 0.0791994 0.0792018 0.078863 0.0788656 0.0788587 0.078863 0.0785227 0.0785269 0.078863 0.0788656 0.0785269 0.0785296 0.0792018 0.079203 0.0788656 0.078867 0.079203 0.0792035 0.078867 0.0788676 0.0788656 0.078867 0.0785296 0.0785311 0.078867 0.0788676 0.0785311 0.0785318 0.0784738 0.0784928 0.0781412 0.0781588 0.0784928 0.0785065 0.0781588 0.0781716 0.0781412 0.0781588 0.0778095 0.0778256 0.0781588 0.0781716 0.0778256 0.0778373 0.0785065 0.0785161 0.0781716 0.0781807 0.0785161 0.0785227 0.0781807 0.078187 0.0781716 0.0781807 0.0778373 0.0778458 0.0781807 0.078187 0.0778458 0.0778516 0.0778095 0.0778256 0.0774787 0.077493 0.0778256 0.0778373 0.077493 0.0775036 0.0774787 0.077493 0.0771486 0.077161 0.077493 0.0775036 0.077161 0.0771703 0.0778373 0.0778458 0.0775036 0.0775112 0.0778458 0.0778516 0.0775112 0.0775165 0.0775036 0.0775112 0.0771703 0.077177 0.0775112 0.0775165 0.077177 0.0771817 0.0785227 0.0785269 0.078187 0.0781911 0.0785269 0.0785296 0.0781911 0.0781937 0.078187 0.0781911 0.0778516 0.0778555 0.0781911 0.0781937 0.0778555 0.077858 0.0785296 0.0785311 0.0781937 0.0781953 0.0785311 0.0785318 0.0781953 0.078196 0.0781937 0.0781953 0.077858 0.0778596 0.0781953 0.078196 0.0778596 0.0778604 0.0778516 0.0778555 0.0775165 0.0775202 0.0778555 0.077858 0.0775202 0.0775225 0.0775165 0.0775202 0.0771817 0.077185 0.0775202 0.0775225 0.077185 0.0771872 0.077858 0.0778596 0.0775225 0.077524 0.0778596 0.0778604 0.077524 0.0775248 0.0775225 0.077524 0.0771872 0.0771885 0.077524 0.0775248 0.0771885 0.0771893 0.0768377 0.0769046 0.0765676 0.0766212 0.0769046 0.0769617 0.0766212 0.0766668 0.0765676 0.0766212 0.0762962 0.0763374 0.0766212 0.0766668 0.0763374 0.0763722 0.0769617 0.0770102 0.0766668 0.0767058 0.0770102 0.0770508 0.0767058 0.0767386 0.0766668 0.0767058 0.0763722 0.0764019 0.0767058 0.0767386 0.0764019 0.0764272 0.0762962 0.0763374 0.0760231 0.076053 0.0763374 0.0763722 0.076053 0.0760775 0.0760231 0.076053 0.0757481 0.0757675 0.076053 0.0760775 0.0757675 0.0757825 0.0763722 0.0764019 0.0760775 0.0760984 0.0764019 0.0764272 0.0760984 0.0761162 0.0760775 0.0760984 0.0757825 0.0757949 0.0760984 0.0761162 0.0757949 0.0758055 0.0770508 0.0770841 0.0767386 0.0767658 0.0770841 0.0771109 0.0767658 0.0767879 0.0767386 0.0767658 0.0764272 0.0764482 0.0767658 0.0767879 0.0764482 0.0764655 0.0771109 0.0771322 0.0767879 0.0768054 0.0771322 0.0771486 0.0768054 0.0768191 0.0767879 0.0768054 0.0764655 0.0764793 0.0768054 0.0768191 0.0764793 0.0764902 0.0764272 0.0764482 0.0761162 0.0761312 0.0764482 0.0764655 0.0761312 0.0761437 0.0761162 0.0761312 0.0758055 0.0758146 0.0761312 0.0761437 0.0758146 0.0758222 0.0764655 0.0764793 0.0761437 0.0761537 0.0764793 0.0764902 0.0761537 0.0761617 0.0761437 0.0761537 0.0758222 0.0758286 0.0761537 0.0761617 0.0758286 0.0758337 0.0757481 0.0757675 0.0754708 0.0754807 0.0757675 0.0757825 0.0754807 0.0754867 0.0754708 0.0754807 0.075191 0.0751924 0.0754807 0.0754867 0.0751924 0.07519 0.0757825 0.0757949 0.0754867 0.0754911 0.0757949 0.0758055 0.0754911 0.0754948 0.0754867 0.0754911 0.07519 0.0751868 0.0754911 0.0754948 0.0751868 0.0751839 0.075191 0.0751924 0.0749085 0.0749022 0.0751924 0.07519 0.0749022 0.0748922 0.0749085 0.0749022 0.0746233 0.0746101 0.0749022 0.0748922 0.0746101 0.0745931 0.07519 0.0751868 0.0748922 0.0748819 0.0751868 0.0751839 0.0748819 0.0748727 0.0748922 0.0748819 0.0745931 0.0745761 0.0748819 0.0748727 0.0745761 0.074561 0.0758055 0.0758146 0.0754948 0.0754981 0.0758146 0.0758222 0.0754981 0.0755011 0.0754948 0.0754981 0.0751839 0.0751817 0.0754981 0.0755011 0.0751817 0.0751801 0.0758222 0.0758286 0.0755011 0.0755037 0.0758286 0.0758337 0.0755037 0.0755059 0.0755011 0.0755037 0.0751801 0.075179 0.0755037 0.0755059 0.075179 0.0751783 0.0751839 0.0751817 0.0748727 0.0748651 0.0751817 0.0751801 0.0748651 0.074859 0.0748727 0.0748651 0.074561 0.0745482 0.0748651 0.074859 0.0745482 0.0745379 0.0751801 0.075179 0.074859 0.0748544 0.075179 0.0751783 0.0748544 0.0748508 0.074859 0.0748544 0.0745379 0.0745297 0.0748544 0.0748508 0.0745297 0.0745234 0.0771486 0.077161 0.0768191 0.0768296 0.077161 0.0771703 0.0768296 0.0768374 0.0768191 0.0768296 0.0764902 0.0764986 0.0768296 0.0768374 0.0764986 0.0765049 0.0771703 0.077177 0.0768374 0.0768431 0.077177 0.0771817 0.0768431 0.0768472 0.0768374 0.0768431 0.0765049 0.0765095 0.0768431 0.0768472 0.0765095 0.0765129 0.0764902 0.0764986 0.0761617 0.076168 0.0764986 0.0765049 0.076168 0.0761727 0.0761617 0.076168 0.0758337 0.0758377 0.076168 0.0761727 0.0758377 0.0758408 0.0765049 0.0765095 0.0761727 0.0761762 0.0765095 0.0765129 0.0761762 0.0761788 0.0761727 0.0761762 0.0758408 0.0758432 0.0761762 0.0761788 0.0758432 0.0758449 0.0771817 0.077185 0.0768472 0.07685 0.077185 0.0771872 0.07685 0.0768519 0.0768472 0.07685 0.0765129 0.0765152 0.07685 0.0768519 0.0765152 0.0765169 0.0771872 0.0771885 0.0768519 0.0768532 0.0771885 0.0771893 0.0768532 0.0768539 0.0768519 0.0768532 0.0765169 0.0765179 0.0768532 0.0768539 0.0765179 0.0765185 0.0765129 0.0765152 0.0761788 0.0761806 0.0765152 0.0765169 0.0761806 0.0761819 0.0761788 0.0761806 0.0758449 0.0758462 0.0761806 0.0761819 0.0758462 0.075847 0.0765169 0.0765179 0.0761819 0.0761827 0.0765179 0.0765185 0.0761827 0.0761833 0.0761819 0.0761827 0.075847 0.0758476 0.0761827 0.0761833 0.0758476 0.075848 0.0758337 0.0758377 0.0755059 0.0755077 0.0758377 0.0758408 0.0755077 0.0755092 0.0755059 0.0755077 0.0751783 0.0751779 0.0755077 0.0755092 0.0751779 0.0751777 0.0758408 0.0758432 0.0755092 0.0755103 0.0758432 0.0758449 0.0755103 0.0755112 0.0755092 0.0755103 0.0751777 0.0751776 0.0755103 0.0755112 0.0751776 0.0751776 0.0751783 0.0751779 0.0748508 0.0748482 0.0751779 0.0751777 0.0748482 0.0748463 0.0748508 0.0748482 0.0745234 0.0745186 0.0748482 0.0748463 0.0745186 0.074515 0.0751777 0.0751776 0.0748463 0.074845 0.0751776 0.0751776 0.074845 0.074844 0.0748463 0.074845 0.074515 0.0745125 0.074845 0.074844 0.0745125 0.0745106 0.0758449 0.0758462 0.0755112 0.0755118 0.0758462 0.075847 0.0755118 0.0755123 0.0755112 0.0755118 0.0751776 0.0751776 0.0755118 0.0755123 0.0751776 0.0751776 0.075847 0.0758476 0.0755123 0.0755126 0.0758476 0.075848 0.0755126 0.0755129 0.0755123 0.0755126 0.0751776 0.0751777 0.0755126 0.0755129 0.0751777 0.0751778 0.0751776 0.0751776 0.074844 0.0748434 0.0751776 0.0751776 0.0748434 0.074843 0.074844 0.0748434 0.0745106 0.0745094 0.0748434 0.074843 0.0745094 0.0745085 0.0751776 0.0751777 0.074843 0.0748428 0.0751777 0.0751778 0.0748428 0.0748427 0.074843 0.