# vtk DataFile Version 3.0
#This file was generated by the deal.II library on 2022/1/6 at 22:48:32
ASCII
DATASET UNSTRUCTURED_GRID

POINTS 16384 double
0 0 0
0.1875 0 0
0 0.046875 0
0.1875 0.046875 0
0.1875 0 0
0.375 0 0
0.1875 0.046875 0
0.375 0.046875 0
0 0.046875 0
0.1875 0.046875 0
0 0.09375 0
0.1875 0.09375 0
0.1875 0.046875 0
0.375 0.046875 0
0.1875 0.09375 0
0.375 0.09375 0
0.375 0 0
0.5625 0 0
0.375 0.046875 0
0.5625 0.046875 0
0.5625 0 0
0.75 0 0
0.5625 0.046875 0
0.75 0.046875 0
0.375 0.046875 0
0.5625 0.046875 0
0.375 0.09375 0
0.5625 0.09375 0
0.5625 0.046875 0
0.75 0.046875 0
0.5625 0.09375 0
0.75 0.09375 0
0 0.09375 0
0.1875 0.09375 0
0 0.140625 0
0.1875 0.140625 0
0.1875 0.09375 0
0.375 0.09375 0
0.1875 0.140625 0
0.375 0.140625 0
0 0.140625 0
0.1875 0.140625 0
0 0.1875 0
0.1875 0.1875 0
0.1875 0.140625 0
0.375 0.140625 0
0.1875 0.1875 0
0.375 0.1875 0
0.375 0.09375 0
0.5625 0.09375 0
0.375 0.140625 0
0.5625 0.140625 0
0.5625 0.09375 0
0.75 0.09375 0
0.5625 0.140625 0
0.75 0.140625 0
0.375 0.140625 0
0.5625 0.140625 0
0.375 0.1875 0
0.5625 0.1875 0
0.5625 0.140625 0
0.75 0.140625 0
0.5625 0.1875 0
0.75 0.1875 0
0.75 0 0
0.9375 0 0
0.75 0.046875 0
0.9375 0.046875 0
0.9375 0 0
1.125 0 0
0.9375 0.046875 0
1.125 0.046875 0
0.75 0.046875 0
0.9375 0.046875 0
0.75 0.09375 0
0.9375 0.09375 0
0.9375 0.046875 0
1.125 0.046875 0
0.9375 0.09375 0
1.125 0.09375 0
1.125 0 0
1.3125 0 0
1.125 0.046875 0
1.3125 0.046875 0
1.3125 0 0
1.5 0 0
1.3125 0.046875 0
1.5 0.046875 0
1.125 0.046875 0
1.3125 0.046875 0
1.125 0.09375 0
1.3125 0.09375 0
1.3125 0.046875 0
1.5 0.046875 0
1.3125 0.09375 0
1.5 0.09375 0
0.75 0.09375 0
0.9375 0.09375 0
0.75 0.140625 0
0.9375 0.140625 0
0.9375 0.09375 0
1.125 0.09375 0
0.9375 0.140625 0
1.125 0.140625 0
0.75 0.140625 0
0.9375 0.140625 0
0.75 0.1875 0
0.9375 0.1875 0
0.9375 0.140625 0
1.125 0.140625 0
0.9375 0.1875 0
1.125 0.1875 0
1.125 0.09375 0
1.3125 0.09375 0
1.125 0.140625 0
1.3125 0.140625 0
1.3125 0.09375 0
1.5 0.09375 0
1.3125 0.140625 0
1.5 0.140625 0
1.125 0.140625 0
1.3125 0.140625 0
1.125 0.1875 0
1.3125 0.1875 0
1.3125 0.140625 0
1.5 0.140625 0
1.3125 0.1875 0
1.5 0.1875 0
0 0.1875 0
0.1875 0.1875 0
0 0.234375 0
0.1875 0.234375 0
0.1875 0.1875 0
0.375 0.1875 0
0.1875 0.234375 0
0.375 0.234375 0
0 0.234375 0
0.1875 0.234375 0
0 0.28125 0
0.1875 0.28125 0
0.1875 0.234375 0
0.375 0.234375 0
0.1875 0.28125 0
0.375 0.28125 0
0.375 0.1875 0
0.5625 0.1875 0
0.375 0.234375 0
0.5625 0.234375 0
0.5625 0.1875 0
0.75 0.1875 0
0.5625 0.234375 0
0.75 0.234375 0
0.375 0.234375 0
0.5625 0.234375 0
0.375 0.28125 0
0.5625 0.28125 0
0.5625 0.234375 0
0.75 0.234375 0
0.5625 0.28125 0
0.75 0.28125 0
0 0.28125 0
0.1875 0.28125 0
0 0.328125 0
0.1875 0.328125 0
0.1875 0.28125 0
0.375 0.28125 0
0.1875 0.328125 0
0.375 0.328125 0
0 0.328125 0
0.1875 0.328125 0
0 0.375 0
0.1875 0.375 0
0.1875 0.328125 0
0.375 0.328125 0
0.1875 0.375 0
0.375 0.375 0
0.375 0.28125 0
0.5625 0.28125 0
0.375 0.328125 0
0.5625 0.328125 0
0.5625 0.28125 0
0.75 0.28125 0
0.5625 0.328125 0
0.75 0.328125 0
0.375 0.328125 0
0.5625 0.328125 0
0.375 0.375 0
0.5625 0.375 0
0.5625 0.328125 0
0.75 0.328125 0
0.5625 0.375 0
0.75 0.375 0
0.75 0.1875 0
0.9375 0.1875 0
0.75 0.234375 0
0.9375 0.234375 0
0.9375 0.1875 0
1.125 0.1875 0
0.9375 0.234375 0
1.125 0.234375 0
0.75 0.234375 0
0.9375 0.234375 0
0.75 0.28125 0
0.9375 0.28125 0
0.9375 0.234375 0
1.125 0.234375 0
0.9375 0.28125 0
1.125 0.28125 0
1.125 0.1875 0
1.3125 0.1875 0
1.125 0.234375 0
1.3125 0.234375 0
1.3125 0.1875 0
1.5 0.1875 0
1.3125 0.234375 0
1.5 0.234375 0
1.125 0.234375 0
1.3125 0.234375 0
1.125 0.28125 0
1.3125 0.28125 0
1.3125 0.234375 0
1.5 0.234375 0
1.3125 0.28125 0
1.5 0.28125 0
0.75 0.28125 0
0.9375 0.28125 0
0.75 0.328125 0
0.9375 0.328125 0
0.9375 0.28125 0
1.125 0.28125 0
0.9375 0.328125 0
1.125 0.328125 0
0.75 0.328125 0
0.9375 0.328125 0
0.75 0.375 0
0.9375 0.375 0
0.9375 0.328125 0
1.125 0.328125 0
0.9375 0.375 0
1.125 0.375 0
1.125 0.28125 0
1.3125 0.28125 0
1.125 0.328125 0
1.3125 0.328125 0
1.3125 0.28125 0
1.5 0.28125 0
1.3125 0.328125 0
1.5 0.328125 0
1.125 0.328125 0
1.3125 0.328125 0
1.125 0.375 0
1.3125 0.375 0
1.3125 0.328125 0
1.5 0.328125 0
1.3125 0.375 0
1.5 0.375 0
1.5 0 0
1.6875 0 0
1.5 0.046875 0
1.6875 0.046875 0
1.6875 0 0
1.875 0 0
1.6875 0.046875 0
1.875 0.046875 0
1.5 0.046875 0
1.6875 0.046875 0
1.5 0.09375 0
1.6875 0.09375 0
1.6875 0.046875 0
1.875 0.046875 0
1.6875 0.09375 0
1.875 0.09375 0
1.875 0 0
2.0625 0 0
1.875 0.046875 0
2.0625 0.046875 0
2.0625 0 0
2.25 0 0
2.0625 0.046875 0
2.25 0.046875 0
1.875 0.046875 0
2.0625 0.046875 0
1.875 0.09375 0
2.0625 0.09375 0
2.0625 0.046875 0
2.25 0.046875 0
2.0625 0.09375 0
2.25 0.09375 0
1.5 0.09375 0
1.6875 0.09375 0
1.5 0.140625 0
1.6875 0.140625 0
1.6875 0.09375 0
1.875 0.09375 0
1.6875 0.140625 0
1.875 0.140625 0
1.5 0.140625 0
1.6875 0.140625 0
1.5 0.1875 0
1.6875 0.1875 0
1.6875 0.140625 0
1.875 0.140625 0
1.6875 0.1875 0
1.875 0.1875 0
1.875 0.09375 0
2.0625 0.09375 0
1.875 0.140625 0
2.0625 0.140625 0
2.0625 0.09375 0
2.25 0.09375 0
2.0625 0.140625 0
2.25 0.140625 0
1.875 0.140625 0
2.0625 0.140625 0
1.875 0.1875 0
2.0625 0.1875 0
2.0625 0.140625 0
2.25 0.140625 0
2.0625 0.1875 0
2.25 0.1875 0
2.25 0 0
2.4375 0 0
2.25 0.046875 0
2.4375 0.046875 0
2.4375 0 0
2.625 0 0
2.4375 0.046875 0
2.625 0.046875 0
2.25 0.046875 0
2.4375 0.046875 0
2.25 0.09375 0
2.4375 0.09375 0
2.4375 0.046875 0
2.625 0.046875 0
2.4375 0.09375 0
2.625 0.09375 0
2.625 0 0
2.8125 0 0
2.625 0.046875 0
2.8125 0.046875 0
2.8125 0 0
3 0 0
2.8125 0.046875 0
3 0.046875 0
2.625 0.046875 0
2.8125 0.046875 0
2.625 0.09375 0
2.8125 0.09375 0
2.8125 0.046875 0
3 0.046875 0
2.8125 0.09375 0
3 0.09375 0
2.25 0.09375 0
2.4375 0.09375 0
2.25 0.140625 0
2.4375 0.140625 0
2.4375 0.09375 0
2.625 0.09375 0
2.4375 0.140625 0
2.625 0.140625 0
2.25 0.140625 0
2.4375 0.140625 0
2.25 0.1875 0
2.4375 0.1875 0
2.4375 0.140625 0
2.625 0.140625 0
2.4375 0.1875 0
2.625 0.1875 0
2.625 0.09375 0
2.8125 0.09375 0
2.625 0.140625 0
2.8125 0.140625 0
2.8125 0.09375 0
3 0.09375 0
2.8125 0.140625 0
3 0.140625 0
2.625 0.140625 0
2.8125 0.140625 0
2.625 0.1875 0
2.8125 0.1875 0
2.8125 0.140625 0
3 0.140625 0
2.8125 0.1875 0
3 0.1875 0
1.5 0.1875 0
1.6875 0.1875 0
1.5 0.234375 0
1.6875 0.234375 0
1.6875 0.1875 0
1.875 0.1875 0
1.6875 0.234375 0
1.875 0.234375 0
1.5 0.234375 0
1.6875 0.234375 0
1.5 0.28125 0
1.6875 0.28125 0
1.6875 0.234375 0
1.875 0.234375 0
1.6875 0.28125 0
1.875 0.28125 0
1.875 0.1875 0
2.0625 0.1875 0
1.875 0.234375 0
2.0625 0.234375 0
2.0625 0.1875 0
2.25 0.1875 0
2.0625 0.234375 0
2.25 0.234375 0
1.875 0.234375 0
2.0625 0.234375 0
1.875 0.28125 0
2.0625 0.28125 0
2.0625 0.234375 0
2.25 0.234375 0
2.0625 0.28125 0
2.25 0.28125 0
1.5 0.28125 0
1.6875 0.28125 0
1.5 0.328125 0
1.6875 0.328125 0
1.6875 0.28125 0
1.875 0.28125 0
1.6875 0.328125 0
1.875 0.328125 0
1.5 0.328125 0
1.6875 0.328125 0
1.5 0.375 0
1.6875 0.375 0
1.6875 0.328125 0
1.875 0.328125 0
1.6875 0.375 0
1.875 0.375 0
1.875 0.28125 0
2.0625 0.28125 0
1.875 0.328125 0
2.0625 0.328125 0
2.0625 0.28125 0
2.25 0.28125 0
2.0625 0.328125 0
2.25 0.328125 0
1.875 0.328125 0
2.0625 0.328125 0
1.875 0.375 0
2.0625 0.375 0
2.0625 0.328125 0
2.25 0.328125 0
2.0625 0.375 0
2.25 0.375 0
2.25 0.1875 0
2.4375 0.1875 0
2.25 0.234375 0
2.4375 0.234375 0
2.4375 0.1875 0
2.625 0.1875 0
2.4375 0.234375 0
2.625 0.234375 0
2.25 0.234375 0
2.4375 0.234375 0
2.25 0.28125 0
2.4375 0.28125 0
2.4375 0.234375 0
2.625 0.234375 0
2.4375 0.28125 0
2.625 0.28125 0
2.625 0.1875 0
2.8125 0.1875 0
2.625 0.234375 0
2.8125 0.234375 0
2.8125 0.1875 0
3 0.1875 0
2.8125 0.234375 0
3 0.234375 0
2.625 0.234375 0
2.8125 0.234375 0
2.625 0.28125 0
2.8125 0.28125 0
2.8125 0.234375 0
3 0.234375 0
2.8125 0.28125 0
3 0.28125 0
2.25 0.28125 0
2.4375 0.28125 0
2.25 0.328125 0
2.4375 0.328125 0
2.4375 0.28125 0
2.625 0.28125 0
2.4375 0.328125 0
2.625 0.328125 0
2.25 0.328125 0
2.4375 0.328125 0
2.25 0.375 0
2.4375 0.375 0
2.4375 0.328125 0
2.625 0.328125 0
2.4375 0.375 0
2.625 0.375 0
2.625 0.28125 0
2.8125 0.28125 0
2.625 0.328125 0
2.8125 0.328125 0
2.8125 0.28125 0
3 0.28125 0
2.8125 0.328125 0
3 0.328125 0
2.625 0.328125 0
2.8125 0.328125 0
2.625 0.375 0
2.8125 0.375 0
2.8125 0.328125 0
3 0.328125 0
2.8125 0.375 0
3 0.375 0
0 0.375 0
0.1875 0.375 0
0 0.421875 0
0.1875 0.421875 0
0.1875 0.375 0
0.375 0.375 0
0.1875 0.421875 0
0.375 0.421875 0
0 0.421875 0
0.1875 0.421875 0
0 0.46875 0
0.1875 0.46875 0
0.1875 0.421875 0
0.375 0.421875 0
0.1875 0.46875 0
0.375 0.46875 0
0.375 0.375 0
0.5625 0.375 0
0.375 0.421875 0
0.5625 0.421875 0
0.5625 0.375 0
0.75 0.375 0
0.5625 0.421875 0
0.75 0.421875 0
0.375 0.421875 0
0.5625 0.421875 0
0.375 0.46875 0
0.5625 0.46875 0
0.5625 0.421875 0
0.75 0.421875 0
0.5625 0.46875 0
0.75 0.46875 0
0 0.46875 0
0.1875 0.46875 0
0 0.515625 0
0.1875 0.515625 0
0.1875 0.46875 0
0.375 0.46875 0
0.1875 0.515625 0
0.375 0.515625 0
0 0.515625 0
0.1875 0.515625 0
0 0.5625 0
0.1875 0.5625 0
0.1875 0.515625 0
0.375 0.515625 0
0.1875 0.5625 0
0.375 0.5625 0
0.375 0.46875 0
0.5625 0.46875 0
0.375 0.515625 0
0.5625 0.515625 0
0.5625 0.46875 0
0.75 0.46875 0
0.5625 0.515625 0
0.75 0.515625 0
0.375 0.515625 0
0.5625 0.515625 0
0.375 0.5625 0
0.5625 0.5625 0
0.5625 0.515625 0
0.75 0.515625 0
0.5625 0.5625 0
0.75 0.5625 0
0.75 0.375 0
0.9375 0.375 0
0.75 0.421875 0
0.9375 0.421875 0
0.9375 0.375 0
1.125 0.375 0
0.9375 0.421875 0
1.125 0.421875 0
0.75 0.421875 0
0.9375 0.421875 0
0.75 0.46875 0
0.9375 0.46875 0
0.9375 0.421875 0
1.125 0.421875 0
0.9375 0.46875 0
1.125 0.46875 0
1.125 0.375 0
1.3125 0.375 0
1.125 0.421875 0
1.3125 0.421875 0
1.3125 0.375 0
1.5 0.375 0
1.3125 0.421875 0
1.5 0.421875 0
1.125 0.421875 0
1.3125 0.421875 0
1.125 0.46875 0
1.3125 0.46875 0
1.3125 0.421875 0
1.5 0.421875 0
1.3125 0.46875 0
1.5 0.46875 0
0.75 0.46875 0
0.9375 0.46875 0
0.75 0.515625 0
0.9375 0.515625 0
0.9375 0.46875 0
1.125 0.46875 0
0.9375 0.515625 0
1.125 0.515625 0
0.75 0.515625 0
0.9375 0.515625 0
[...]
POINT_DATA 16384
SCALARS x_displacement double 1
LOOKUP_TABLE default
0 0.0328672 0 0.0294786 0.0328672 0.0578159 0.0294786 0.056313 0 0.0294786 0 0.027149 0.0294786 0.056313 0.027149 0.0536914 0.0578159 0.0730415 0.056313 0.0719041 0.0730415 0.078363 0.0719041 0.0777057 0.056313 0.0719041 0.0536914 0.0700598 0.0719041 0.0777057 0.0700598 0.076592 0 0.027149 0 0.0252247 0.027149 0.0536914 0.0252247 0.0502519 0 0.0252247 0 0.0236026 0.0252247 0.0502519 0.0236026 0.0467352 0.0536914 0.0700598 0.0502519 0.0674103 0.0700598 0.076592 0.0674103 0.0750606 0.0502519 0.0674103 0.0467352 0.0638088 0.0674103 0.0750606 0.0638088 0.0732443 0.078363 0.0831427 0.0777057 0.0829278 0.0831427 0.0883639 0.0829278 0.088466 0.0777057 0.0829278 0.076592 0.0824643 0.0829278 0.088466 0.0824643 0.0883783 0.0883639 0.093583 0.088466 0.0938027 0.093583 0.0984541 0.0938027 0.0987125 0.088466 0.0938027 0.0883783 0.0938899 0.0938027 0.0987125 0.0938899 0.0988716 0.076592 0.0824643 0.0750606 0.0817932 0.0824643 0.0883783 0.0817932 0.0881293 0.0750606 0.0817932 0.0732443 0.0809621 0.0817932 0.0881293 0.0809621 0.0877412 0.0883783 0.0938899 0.0881293 0.0938545 0.0938899 0.0988716 0.0938545 0.0989386 0.0881293 0.0938545 0.0877412 0.0937109 0.0938545 0.0989386 0.0937109 0.0989205 0 0.0236026 0 0.0222263 0.0236026 0.0467352 0.0222263 0.0434348 0 0.0222263 0 0.0210135 0.0222263 0.0434348 0.0210135 0.0408206 0.0467352 0.0638088 0.0434348 0.0601369 0.0638088 0.0732443 0.0601369 0.0713796 0.0434348 0.0601369 0.0408206 0.0572006 0.0601369 0.0713796 0.0572006 0.0695033 0 0.0210135 0 0.0199907 0.0210135 0.0408206 0.0199907 0.038749 0 0.0199907 0 0.0191484 0.0199907 0.038749 0.0191484 0.0370994 0.0408206 0.0572006 0.038749 0.0548569 0.0572006 0.0695033 0.0548569 0.0677435 0.038749 0.0548569 0.0370994 0.0529451 0.0548569 0.0677435 0.0529451 0.0661497 0.0732443 0.0809621 0.0713796 0.0799944 0.0809621 0.0877412 0.0799944 0.0872423 0.0713796 0.0799944 0.0695033 0.0789481 0.0799944 0.0872423 0.0789481 0.0866543 0.0877412 0.0937109 0.0872423 0.0934725 0.0937109 0.0989205 0.0934725 0.0988256 0.0872423 0.0934725 0.0866543 0.0931537 0.0934725 0.0988256 0.0931537 0.0986621 0.0695033 0.0789481 0.0677435 0.077857 0.0789481 0.0866543 0.077857 0.0860018 0.0677435 0.077857 0.0661497 0.0767631 0.077857 0.0860018 0.0767631 0.0853046 0.0866543 0.0931537 0.0860018 0.0927679 0.0931537 0.0986621 0.0927679 0.0984387 0.0860018 0.0927679 0.0853046 0.0923288 0.0927679 0.0984387 0.0923288 0.0981638 0.0984541 0.102846 0.0987125 0.103098 0.102846 0.106717 0.103098 0.106936 0.0987125 0.103098 0.0988716 0.103275 0.103098 0.106936 0.103275 0.107097 0.106717 0.110072 0.106936 0.110241 0.110072 0.112939 0.110241 0.11305 0.106936 0.110241 0.107097 0.110368 0.110241 0.11305 0.110368 0.11313 0.0988716 0.103275 0.0989386 0.10338 0.103275 0.107097 0.10338 0.107204 0.0989386 0.10338 0.0989205 0.103419 0.10338 0.107204 0.103419 0.107259 0.107097 0.110368 0.107204 0.110453 0.110368 0.11313 0.110453 0.11318 0.107204 0.110453 0.107259 0.110498 0.110453 0.11318 0.110498 0.1132 0.112939 0.115357 0.11305 0.115409 0.115357 0.117375 0.115409 0.117367 0.11305 0.115409 0.11313 0.115438 0.115409 0.117367 0.115438 0.117345 0.117375 0.119041 0.117367 0.118978 0.119041 0.120403 0.118978 0.120289 0.117367 0.118978 0.117345 0.118905 0.118978 0.120289 0.118905 0.120171 0.11313 0.115438 0.11318 0.115445 0.115438 0.117345 0.115445 0.117307 0.11318 0.115445 0.1132 0.115431 0.115445 0.117307 0.115431 0.117254 0.117345 0.118905 0.117307 0.118824 0.118905 0.120171 0.118824 0.120047 0.117307 0.118824 0.117254 0.118731 0.118824 0.120047 0.118731 0.119917 0.0989205 0.103419 0.0988256 0.103397 0.103419 0.107259 0.103397 0.107265 0.0988256 0.103397 0.0986621 0.103318 0.103397 0.107265 0.103318 0.107226 0.107259 0.110498 0.107265 0.110505 0.110498 0.1132 0.110505 0.11319 0.107265 0.110505 0.107226 0.110476 0.110505 0.11319 0.110476 0.113153 0.0986621 0.103318 0.0984387 0.103188 0.103318 0.107226 0.103188 0.107144 0.0984387 0.103188 0.0981638 0.103013 0.103188 0.107144 0.103013 0.107024 0.107226 0.110476 0.107144 0.110413 0.110476 0.113153 0.110413 0.113089 0.107144 0.110413 0.107024 0.110318 0.110413 0.113089 0.110318 0.113 0.1132 0.115431 0.11319 0.115395 0.115431 0.117254 0.115395 0.117186 0.11319 0.115395 0.113153 0.115337 0.115395 0.117186 0.115337 0.117102 0.117254 0.118731 0.117186 0.118629 0.118731 0.119917 0.118629 0.119781 0.117186 0.118629 0.117102 0.118515 0.118629 0.119781 0.118515 0.119637 0.113153 0.115337 0.113089 0.11526 0.115337 0.117102 0.11526 0.117003 0.113089 0.11526 0.113 0.115162 0.11526 0.117003 0.115162 0.116889 0.117102 0.118515 0.117003 0.118391 0.118515 0.119637 0.118391 0.119485 0.117003 0.118391 0.116889 0.118255 0.118391 0.119485 0.118255 0.119326 0 0.0191484 0 0.018463 0.0191484 0.0370994 0.018463 0.0357772 0 0.018463 0 0.0179077 0.018463 0.0357772 0.0179077 0.0347101 0.0370994 0.0529451 0.0357772 0.0513656 0.0529451 0.0661497 0.0513656 0.0647271 0.0357772 0.0513656 0.0347101 0.0500494 0.0513656 0.0647271 0.0500494 0.0634658 0 0.0179077 0 0.0174574 0.0179077 0.0347101 0.0174574 0.0338429 0 0.0174574 0 0.0170911 0.0174574 0.0338429 0.0170911 0.0331332 0.0347101 0.0500494 0.0338429 0.0489452 0.0500494 0.0634658 0.0489452 0.0623508 0.0338429 0.0489452 0.0331332 0.0480132 0.0489452 0.0623508 0.0480132 0.0613662 0.0661497 0.0767631 0.0647271 0.0756994 0.0767631 0.0853046 0.0756994 0.0845814 0.0647271 0.0756994 0.0634658 0.0746863 0.0756994 0.0845814 0.0746863 0.0838495 0.0853046 0.0923288 0.0845814 0.0918489 0.0923288 0.0981638 0.0918489 0.0978455 0.0845814 0.0918489 0.0838495 0.0913393 0.0918489 0.0978455 0.0913393 0.0974918 0.0634658 0.0746863 0.0623508 0.073735 0.0746863 0.0838495 0.073735 0.0831229 0.0623508 0.073735 0.0613662 0.07285 0.073735 0.0831229 0.07285 0.0824123 0.0838495 0.0913393 0.0831229 0.0908103 0.0913393 0.0974918 0.0908103 0.09711 0.0831229 0.0908103 0.0824123 0.0902709 0.0908103 0.09711 0.0902709 0.0967067 0 0.0170911 0 0.0167914 0.0170911 0.0331332 0.0167914 0.032548 0 0.0167914 0 0.0165445 0.0167914 0.032548 0.0165445 0.032062 0.0331332 0.0480132 0.032548 0.0472223 0.0480132 0.0613662 0.0472223 0.0604965 0.032548 0.0472223 0.032062 0.0465474 0.0472223 0.0604965 0.0465474 0.0597273 0 0.0165445 0 0.0163395 0.0165445 0.032062 0.0163395 0.0316551 0 0.0163395 0 0.0161679 0.0163395 0.0316551 0.0161679 0.0313116 0.032062 0.0465474 0.0316551 0.0459682 0.0465474 0.0597273 0.0459682 0.0590459 0.0316551 0.0459682 0.0313116 0.0454684 0.0459682 0.0590459 0.0454684 0.0584407 0.0613662 0.07285 0.0604965 0.0720318 0.07285 0.0824123 0.0720318 0.0817252 0.0604965 0.0720318 0.0597273 0.0712786 0.0720318 0.0817252 0.0712786 0.0810666 0.0824123 0.0902709 0.0817252 0.0897288 0.0902709 0.0967067 0.0897288 0.0962879 0.0817252 0.0897288 0.0810666 0.08919 0.0897288 0.0962879 0.08919 0.0958591 0.0597273 0.0712786 0.0590459 0.0705871 0.0712786 0.0810666 0.0705871 0.0804394 0.0590459 0.0705871 0.0584407 0.069953 0.0705871 0.0804394 0.069953 0.0798451 0.0810666 0.08919 0.0804394 0.0886597 0.08919 0.0958591 0.0886597 0.095425 0.0804394 0.0886597 0.0798451 0.0881415 0.0886597 0.095425 0.0881415 0.0949894 0.0981638 0.103013 0.0978455 0.102797 0.103013 0.107024 0.102797 0.106869 0.0978455 0.102797 0.0974918 0.102547 0.102797 0.106869 0.102547 0.106682 0.107024 0.110318 0.106869 0.110194 0.110318 0.113 0.110194 0.112886 0.106869 0.110194 0.106682 0.110043 0.110194 0.112886 0.110043 0.11275 0.0974918 0.102547 0.09711 0.102266 0.102547 0.106682 0.102266 0.106468 0.09711 0.102266 0.0967067 0.101961 0.102266 0.106468 0.101961 0.106229 0.106682 0.110043 0.106468 0.109867 0.110043 0.11275 0.109867 0.112593 0.106468 0.109867 0.106229 0.109669 0.109867 0.112593 0.109669 0.112416 0.113 0.115162 0.112886 0.115045 0.115162 0.116889 0.115045 0.11676 0.112886 0.115045 0.11275 0.11491 0.115045 0.11676 0.11491 0.116616 0.116889 0.118255 0.11676 0.118108 0.118255 0.119326 0.118108 0.119158 0.11676 0.118108 0.116616 0.11795 0.118108 0.119158 0.11795 0.118983 0.11275 0.11491 0.112593 0.114758 0.11491 0.116616 0.114758 0.116459 0.112593 0.114758 0.112416 0.114589 0.114758 0.116459 0.114589 0.116288 0.116616 0.11795 0.116459 0.117782 0.11795 0.118983 0.117782 0.118799 0.116459 0.117782 0.116288 0.117602 0.117782 0.118799 0.117602 0.118606 0.0967067 0.101961 0.0962879 0.101636 0.101961 0.106229 0.101636 0.105968 0.0962879 0.101636 0.0958591 0.101294 0.101636 0.105968 0.101294 0.10569 0.106229 0.109669 0.105968 0.10945 0.109669 0.112416 0.10945 0.112222 0.105968 0.10945 0.10569 0.109214 0.10945 0.112222 0.109214 0.112011 0.0958591 0.101294 0.095425 0.10094 0.101294 0.10569 0.10094 0.105396 0.095425 0.10094 0.0949894 0.100577 0.10094 0.105396 0.100577 0.10509 0.10569 0.109214 0.105396 0.108962 0.109214 0.112011 0.108962 0.111785 0.105396 0.108962 0.10509 0.108696 0.108962 0.111785 0.108696 0.111546 0.112416 0.114589 0.112222 0.114405 0.114589 0.116288 0.114405 0.116104 0.112222 0.114405 0.112011 0.114206 0.114405 0.116104 0.114206 0.115908 0.116288 0.117602 0.116104 0.117412 0.117602 0.118606 0.117412 0.118406 0.116104 0.117412 0.115908 0.117212 0.117412 0.118406 0.117212 0.118197 0.112011 0.114206 0.111785 0.113994 0.114206 0.115908 0.113994 0.115701 0.111785 0.113994 0.111546 0.113769 0.113994 0.115701 0.113769 0.115482 0.115908 0.117212 0.115701 0.117002 0.117212 0.118197 0.117002 0.11798 0.115701 0.117002 0.115482 0.116782 0.117002 0.11798 0.116782 0.117755 0.120403 0.121505 0.120289 0.121348 0.121505 0.122391 0.121348 0.122195 0.120289 0.121348 0.120171 0.121188 0.121348 0.122195 0.121188 0.121999 0.122391 0.123095 0.122195 0.122867 0.123095 0.123652 0.122867 0.123397 0.122195 0.122867 0.121999 0.122641 0.122867 0.123397 0.122641 0.123146 0.120171 0.121188 0.120047 0.121026 0.121188 0.121999 0.121026 0.121804 0.120047 0.121026 0.119917 0.120861 0.121026 0.121804 0.120861 0.121607 0.121999 0.122641 0.121804 0.122417 0.122641 0.123146 0.122417 0.122897 0.121804 0.122417 0.121607 0.122193 0.122417 0.122897 0.122193 0.122649 0.123652 0.124087 0.123397 0.123812 0.124087 0.124425 0.123812 0.124133 0.123397 0.123812 0.123146 0.123539 0.123812 0.124133 0.123539 0.123844 0.124425 0.124686 0.124133 0.124381 0.124686 0.124885 0.124381 0.12457 0.124133 0.124381 0.123844 0.124079 0.124381 0.12457 0.124079 0.124258 0.123146 0.123539 0.122897 0.12327 0.123539 0.123844 0.12327 0.123558 0.122897 0.12327 0.122649 0.123002 0.12327 0.123558 0.123002 0.123275 0.123844 0.124079 0.123558 0.12378 0.124079 0.124258 0.12378 0.123949 0.123558 0.12378 0.123275 0.123483 0.12378 0.123949 0.123483 0.123642 0.119917 0.120861 0.119781 0.120692 0.120861 0.121607 0.120692 0.121409 0.119781 0.120692 0.119637 0.120519 0.120692 0.121409 0.120519 0.121209 0.121607 0.122193 0.121409 0.121968 0.122193 0.122649 0.121968 0.122402 0.121409 0.121968 0.121209 0.121743 0.121968 0.122402 0.121743 0.122156 0.119637 0.120519 0.119485 0.120341 0.120519 0.121209 0.120341 0.121005 0.119485 0.120341 0.119326 0.120158 0.120341 0.121005 0.120158 0.120799 0.121209 0.121743 0.121005 0.121517 0.121743 0.122156 0.121517 0.121909 0.121005 0.121517 0.120799 0.121289 0.121517 0.121909 0.121289 0.121662 0.122649 0.123002 0.122402 0.122736 0.123002 0.123275 0.122736 0.122993 0.122402 0.122736 0.122156 0.122471 0.122736 0.122993 0.122471 0.122712 0.123275 0.123483 0.122993 0.123188 0.123483 0.123642 0.123188 0.123337 0.122993 0.123188 0.122712 0.122895 0.123188 0.123337 0.122895 0.123033 0.122156 0.122471 0.121909 0.122207 0.122471 0.122712 0.122207 0.122433 0.121909 0.122207 0.121662 0.121943 0.122207 0.122433 0.121943 0.122154 0.122712 0.122895 0.122433 0.122603 0.122895 0.123033 0.122603 0.122731 0.122433 0.122603 0.122154 0.122312 0.122603 0.122731 0.122312 0.12243 0.124885 0.125036 0.12457 0.124714 0.125036 0.12515 0.124714 0.124822 0.12457 0.124714 0.124258 0.124395 0.124714 0.124822 0.124395 0.124497 0.12515 0.125234 0.124822 0.124903 0.125234 0.125296 0.124903 0.124962 0.124822 0.124903 0.124497 0.124574 0.124903 0.124962 0.124574 0.124631 0.124258 0.124395 0.123949 0.124077 0.124395 0.124497 0.124077 0.124174 0.123949 0.124077 0.123642 0.123762 0.124077 0.124174 0.123762 0.123853 0.124497 0.124574 0.124174 0.124246 0.124574 0.124631 0.124246 0.1243 0.124174 0.124246 0.123853 0.123921 0.124246 0.1243 0.123921 0.123971 0.125296 0.125341 0.124962 0.125006 0.125341 0.125373 0.125006 0.125037 0.124962 0.125006 0.124631 0.124672 0.125006 0.125037 0.124672 0.124702 0.125373 0.125396 0.125037 0.125059 0.125396 0.125412 0.125059 0.125075 0.125037 0.125059 0.124702 0.124724 0.125059 0.125075 0.124724 0.124739 0.124631 0.124672 0.1243 0.124339 0.124672 0.124702 0.124339 0.124368 0.1243 0.124339 0.123971 0.124008 0.124339 0.124368 0.124008 0.124035 0.124702 0.124724 0.124368 0.124389 0.124724 0.124739 0.124389 0.124403 0.124368 0.124389 0.124035 0.124054 0.124389 0.124403 0.124054 0.124068 0.123642 0.123762 0.123337 0.123449 0.123762 0.123853 0.123449 0.123533 0.123337 0.123449 0.123033 0.123137 0.123449 0.123533 0.123137 0.123215 0.123853 0.123921 0.123533 0.123596 0.123921 0.123971 0.123596 0.123643 0.123533 0.123596 0.123215 0.123273 0.123596 0.123643 0.123273 0.123316 0.123033 0.123137 0.122731 0.122827 0.123137 0.123215 0.122827 0.122898 0.122731 0.122827 0.12243 0.122517 0.122827 0.122898 0.122517 0.122582 0.123215 0.123273 0.122898 0.122951 0.123273 0.123316 0.122951 0.12299 0.122898 0.122951 0.122582 0.12263 0.122951 0.12299 0.12263 0.122665 0.123971 0.124008 0.123643 0.123677 0.124008 0.124035 0.123677 0.123703 0.123643 0.123677 0.123316 0.123348 0.123677 0.123703 0.123348 0.123371 0.124035 0.124054 0.123703 0.123721 0.124054 0.124068 0.123721 0.123734 0.123703 0.123721 0.123371 0.123388 0.123721 0.123734 0.123388 0.1234 0.123316 0.123348 0.12299 0.123019 0.123348 0.123371 0.123019 0.12304 0.12299 0.123019 0.122665 0.122691 0.123019 0.12304 0.122691 0.12271 0.123371 0.123388 0.12304 0.123055 0.123388 0.1234 0.123055 0.123066 0.12304 0.123055 0.12271 0.122723 0.123055 0.123066 0.122723 0.122733 0.119326 0.120158 0.119158 0.119969 0.120158 0.120799 0.119969 0.120589 0.119158 0.119969 0.118983 0.119774 0.119969 0.120589 0.119774 0.120374 0.120799 0.121289 0.120589 0.121059 0.121289 0.121662 0.121059 0.121413 0.120589 0.121059 0.120374 0.120826 0.121059 0.121413 0.120826 0.121163 0.118983 0.119774 0.118799 0.119573 0.119774 0.120374 0.119573 0.120156 0.118799 0.119573 0.118606 0.119365 0.119573 0.120156 0.119365 0.119932 0.120374 0.120826 0.120156 0.12059 0.120826 0.121163 0.12059 0.120911 0.120156 0.12059 0.119932 0.120351 0.12059 0.120911 0.120351 0.120657 0.121662 0.121943 0.121413 0.121678 0.121943 0.122154 0.121678 0.121876 0.121413 0.121678 0.121163 0.121413 0.121678 0.121876 0.121413 0.121597 0.122154 0.122312 0.121876 0.122022 0.122312 0.12243 0.122022 0.122129 0.121876 0.122022 0.121597 0.121731 0.122022 0.122129 0.121731 0.121829 0.121163 0.121413 0.120911 0.121146 0.121413 0.121597 0.121146 0.121317 0.120911 0.121146 0.120657 0.120879 0.121146 0.121317 0.120879 0.121037 0.121597 0.121731 0.121317 0.121441 0.121731 0.121829 0.121441 0.12153 0.121317 0.121441 0.121037 0.12115 0.121441 0.12153 0.12115 0.12123 0.118606 0.119365 0.118406 0.119152 0.119365 0.119932 0.119152 0.119704 0.118406 0.119152 0.118197 0.118931 0.119152 0.119704 0.118931 0.119471 0.119932 0.120351 0.119704 0.120108 0.120351 0.120657 0.120108 0.120401 0.119704 0.120108 0.119471 0.119862 0.120108 0.120401 0.119862 0.120141 0.118197 0.118931 0.11798 0.118704 0.118931 0.119471 0.118704 0.119232 0.11798 0.118704 0.117755 0.118471 0.118704 0.119232 0.118471 0.118989 0.119471 0.119862 0.119232 0.119611 0.119862 0.120141 0.119611 0.119879 0.119232 0.119611 0.118989 0.119357 0.119611 0.119879 0.119357 0.119613 0.120657 0.120879 0.120401 0.120609 0.120879 0.121037 0.120609 0.120756 0.120401 0.120609 0.120141 0.120338 0.120609 0.120756 0.120338 0.120474 0.121037 0.12115 0.120756 0.120859 0.12115 0.12123 0.120859 0.12093 0.120756 0.120859 0.120474 0.120567 0.120859 0.12093 0.120567 0.120629 0.120141 0.120338 0.119879 0.120064 0.120338 0.120474 0.120064 0.12019 0.119879 0.120064 0.119613 0.119788 0.120064 0.12019 0.119788 0.119904 0.120474 0.120567 0.12019 0.120273 0.120567 0.120629 0.120273 0.120327 0.12019 0.120273 0.119904 0.119978 0.120273 0.120327 0.119978 0.120025 0.12243 0.122517 0.122129 0.122209 0.122517 0.122582 0.122209 0.122267 0.122129 0.122209 0.121829 0.121901 0.122209 0.122267 0.121901 0.121952 0.122582 0.12263 0.122267 0.12231 0.12263 0.122665 0.12231 0.122341 0.122267 0.12231 0.121952 0.12199 0.12231 0.122341 0.12199 0.122017 0.121829 0.121901 0.12153 0.121593 0.121901 0.121952 0.121593 0.121638 0.12153 0.121593 0.12123 0.121286 0.121593 0.121638 0.121286 0.121324 0.121952 0.12199 0.121638 0.121671 0.12199 0.122017 0.121671 0.121693 0.121638 0.121671 0.121324 0.121352 0.121671 0.121693 0.121352 0.12137 0.122665 0.122691 0.122341 0.122363 0.122691 0.12271 0.122363 0.12238 0.122341 0.122363 0.122017 0.122036 0.122363 0.12238 0.122036 0.12205 0.12271 0.122723 0.12238 0.122391 0.122723 0.122733 0.122391 0.1224 0.12238 0.122391 0.12205 0.12206 0.122391 0.1224 0.12206 0.122067 0.122017 0.122036 0.121693 0.12171 0.122036 0.12205 0.12171 0.121721 0.121693 0.12171 0.12137 0.121383 0.12171 0.121721 0.121383 0.121392 0.12205 0.12206 0.121721 0.121729 0.12206 0.122067 0.121729 0.121735 0.121721 0.121729 0.121392 0.121399 0.121729 0.121735 0.121399 0.121403 0.12123 0.121286 0.12093 0.120978 0.121286 0.121324 0.120978 0.121011 0.12093 0.120978 0.120629 0.12067 0.120978 0.121011 0.12067 0.120697 0.121324 0.121352 0.121011 0.121033 0.121352 0.12137 0.121033 0.121047 0.121011 0.121033 0.120697 0.120714 0.121033 0.121047 0.120714 0.120725 0.120629 0.12067 0.120327 0.120362 0.12067 0.120697 0.120362 0.120383 0.120327 0.120362 0.120025 0.120053 0.120362 0.120383 0.120053 0.120068 0.120697 0.120714 0.120383 0.120395 0.120714 0.120725 0.120395 0.120402 0.120383 0.120395 0.120068 0.120076 0.120395 0.120402 0.120076 0.120079 0.12137 0.121383 0.121047 0.121057 0.121383 0.121392 0.121057 0.121064 0.121047 0.121057 0.120725 0.120731 0.121057 0.121064 0.120731 0.120735 0.121392 0.121399 0.121064 0.121068 0.121399 0.121403 0.121068 0.121071 0.121064 0.121068 0.120735 0.120738 0.121068 0.121071 0.120738 0.120739 0.120725 0.120731 0.120402 0.120405 0.120731 0.120735 0.120405 0.120407 0.120402 0.120405 0.120079 0.120079 0.120405 0.120407 0.120079 0.120079 0.120735 0.120738 0.120407 0.120407 0.120738 0.120739 0.120407 0.120408 0.120407 0.120407 0.120079 0.120077 0.120407 0.120408 0.120077 0.120076 0 0.0161679 0 0.0160229 0.0161679 0.0313116 0.0160229 0.0310193 0 0.0160229 0 0.0158993 0.0160229 0.0310193 0.0158993 0.0307683 0.0313116 0.0454684 0.0310193 0.0450345 0.0454684 0.0584407 0.0450345 0.0579018 0.0310193 0.0450345 0.0307683 0.0446555 0.0450345 0.0579018 0.0446555 0.0574204 0 0.0158993 0 0.0157928 0.0158993 0.0307683 0.0157928 0.030551 0 0.0157928 0 0.0157003 0.0157928 0.030551 0.0157003 0.0303611 0.0307683 0.0446555 0.030551 0.0443224 0.0446555 0.0574204 0.0443224 0.0569888 0.030551 0.0443224 0.0303611 0.0440278 0.0443224 0.0569888 0.0440278 0.0566004 0.0584407 0.069953 0.0579018 0.069372 0.069953 0.0798451 0.069372 0.0792839 0.0579018 0.069372 0.0574204 0.0688394 0.069372 0.0792839 0.0688394 0.0787555 0.0798451 0.0881415 0.0792839 0.0876383 0.0881415 0.0949894 0.0876383 0.0945557 0.0792839 0.0876383 0.0787555 0.0871518 0.0876383 0.0945557 0.0871518 0.0941266 0.0574204 0.0688394 0.0569888 0.0683508 0.0688394 0.0787555 0.0683508 0.0782587 0.0569888 0.0683508 0.0566004 0.0679022 0.0683508 0.0782587 0.0679022 0.0777922 0.0787555 0.0871518 0.0782587 0.0866833 0.0871518 0.0941266 0.0866833 0.0937043 0.0782587 0.0866833 0.0777922 0.0862335 0.0866833 0.0937043 0.0862335 0.0932903 0 0.0157003 0 0.015619 0.0157003 0.0303611 0.015619 0.0301937 0 0.015619 0 0.0155468 0.015619 0.0301937 0.0155468 0.0300449 0.0303611 0.0440278 0.0301937 0.0437656 0.0440278 0.0566004 0.0437656 0.0562496 0.0301937 0.0437656 0.0300449 0.0435306 0.0437656 0.056249