# vtk DataFile Version 3.0
#This file was generated by the deal.II library on 2022/1/6 at 22:53:46
ASCII
DATASET UNSTRUCTURED_GRID

POINTS 16384 double
0 0 0
0.1875 0 0
0 0.046875 0
0.1875 0.046875 0
0.1875 0 0
0.375 0 0
0.1875 0.046875 0
0.375 0.046875 0
0 0.046875 0
0.1875 0.046875 0
0 0.09375 0
0.1875 0.09375 0
0.1875 0.046875 0
0.375 0.046875 0
0.1875 0.09375 0
0.375 0.09375 0
0.375 0 0
0.5625 0 0
0.375 0.046875 0
0.5625 0.046875 0
0.5625 0 0
0.75 0 0
0.5625 0.046875 0
0.75 0.046875 0
0.375 0.046875 0
0.5625 0.046875 0
0.375 0.09375 0
0.5625 0.09375 0
0.5625 0.046875 0
0.75 0.046875 0
0.5625 0.09375 0
0.75 0.09375 0
0 0.09375 0
0.1875 0.09375 0
0 0.140625 0
0.1875 0.140625 0
0.1875 0.09375 0
0.375 0.09375 0
0.1875 0.140625 0
0.375 0.140625 0
0 0.140625 0
0.1875 0.140625 0
0 0.1875 0
0.1875 0.1875 0
0.1875 0.140625 0
0.375 0.140625 0
0.1875 0.1875 0
0.375 0.1875 0
0.375 0.09375 0
0.5625 0.09375 0
0.375 0.140625 0
0.5625 0.140625 0
0.5625 0.09375 0
0.75 0.09375 0
0.5625 0.140625 0
0.75 0.140625 0
0.375 0.140625 0
0.5625 0.140625 0
0.375 0.1875 0
0.5625 0.1875 0
0.5625 0.140625 0
0.75 0.140625 0
0.5625 0.1875 0
0.75 0.1875 0
0.75 0 0
0.9375 0 0
0.75 0.046875 0
0.9375 0.046875 0
0.9375 0 0
1.125 0 0
0.9375 0.046875 0
1.125 0.046875 0
0.75 0.046875 0
0.9375 0.046875 0
0.75 0.09375 0
0.9375 0.09375 0
0.9375 0.046875 0
1.125 0.046875 0
0.9375 0.09375 0
1.125 0.09375 0
1.125 0 0
1.3125 0 0
1.125 0.046875 0
1.3125 0.046875 0
1.3125 0 0
1.5 0 0
1.3125 0.046875 0
1.5 0.046875 0
1.125 0.046875 0
1.3125 0.046875 0
1.125 0.09375 0
1.3125 0.09375 0
1.3125 0.046875 0
1.5 0.046875 0
1.3125 0.09375 0
1.5 0.09375 0
0.75 0.09375 0
0.9375 0.09375 0
0.75 0.140625 0
0.9375 0.140625 0
0.9375 0.09375 0
1.125 0.09375 0
0.9375 0.140625 0
1.125 0.140625 0
0.75 0.140625 0
0.9375 0.140625 0
0.75 0.1875 0
0.9375 0.1875 0
0.9375 0.140625 0
1.125 0.140625 0
0.9375 0.1875 0
1.125 0.1875 0
1.125 0.09375 0
1.3125 0.09375 0
1.125 0.140625 0
1.3125 0.140625 0
1.3125 0.09375 0
1.5 0.09375 0
1.3125 0.140625 0
1.5 0.140625 0
1.125 0.140625 0
1.3125 0.140625 0
1.125 0.1875 0
1.3125 0.1875 0
1.3125 0.140625 0
1.5 0.140625 0
1.3125 0.1875 0
1.5 0.1875 0
0 0.1875 0
0.1875 0.1875 0
0 0.234375 0
0.1875 0.234375 0
0.1875 0.1875 0
0.375 0.1875 0
0.1875 0.234375 0
0.375 0.234375 0
0 0.234375 0
0.1875 0.234375 0
0 0.28125 0
0.1875 0.28125 0
0.1875 0.234375 0
0.375 0.234375 0
0.1875 0.28125 0
0.375 0.28125 0
0.375 0.1875 0
0.5625 0.1875 0
0.375 0.234375 0
0.5625 0.234375 0
0.5625 0.1875 0
0.75 0.1875 0
0.5625 0.234375 0
0.75 0.234375 0
0.375 0.234375 0
0.5625 0.234375 0
0.375 0.28125 0
0.5625 0.28125 0
0.5625 0.234375 0
0.75 0.234375 0
0.5625 0.28125 0
0.75 0.28125 0
0 0.28125 0
0.1875 0.28125 0
0 0.328125 0
0.1875 0.328125 0
0.1875 0.28125 0
0.375 0.28125 0
0.1875 0.328125 0
0.375 0.328125 0
0 0.328125 0
0.1875 0.328125 0
0 0.375 0
0.1875 0.375 0
0.1875 0.328125 0
0.375 0.328125 0
0.1875 0.375 0
0.375 0.375 0
0.375 0.28125 0
0.5625 0.28125 0
0.375 0.328125 0
0.5625 0.328125 0
0.5625 0.28125 0
0.75 0.28125 0
0.5625 0.328125 0
0.75 0.328125 0
0.375 0.328125 0
0.5625 0.328125 0
0.375 0.375 0
0.5625 0.375 0
0.5625 0.328125 0
0.75 0.328125 0
0.5625 0.375 0
0.75 0.375 0
0.75 0.1875 0
0.9375 0.1875 0
0.75 0.234375 0
0.9375 0.234375 0
0.9375 0.1875 0
1.125 0.1875 0
0.9375 0.234375 0
1.125 0.234375 0
0.75 0.234375 0
0.9375 0.234375 0
0.75 0.28125 0
0.9375 0.28125 0
0.9375 0.234375 0
1.125 0.234375 0
0.9375 0.28125 0
1.125 0.28125 0
1.125 0.1875 0
1.3125 0.1875 0
1.125 0.234375 0
1.3125 0.234375 0
1.3125 0.1875 0
1.5 0.1875 0
1.3125 0.234375 0
1.5 0.234375 0
1.125 0.234375 0
1.3125 0.234375 0
1.125 0.28125 0
1.3125 0.28125 0
1.3125 0.234375 0
1.5 0.234375 0
1.3125 0.28125 0
1.5 0.28125 0
0.75 0.28125 0
0.9375 0.28125 0
0.75 0.328125 0
0.9375 0.328125 0
0.9375 0.28125 0
1.125 0.28125 0
0.9375 0.328125 0
1.125 0.328125 0
0.75 0.328125 0
0.9375 0.328125 0
0.75 0.375 0
0.9375 0.375 0
0.9375 0.328125 0
1.125 0.328125 0
0.9375 0.375 0
1.125 0.375 0
1.125 0.28125 0
1.3125 0.28125 0
1.125 0.328125 0
1.3125 0.328125 0
1.3125 0.28125 0
1.5 0.28125 0
1.3125 0.328125 0
1.5 0.328125 0
1.125 0.328125 0
1.3125 0.328125 0
1.125 0.375 0
1.3125 0.375 0
1.3125 0.328125 0
1.5 0.328125 0
1.3125 0.375 0
1.5 0.375 0
1.5 0 0
1.6875 0 0
1.5 0.046875 0
1.6875 0.046875 0
1.6875 0 0
1.875 0 0
1.6875 0.046875 0
1.875 0.046875 0
1.5 0.046875 0
1.6875 0.046875 0
1.5 0.09375 0
1.6875 0.09375 0
1.6875 0.046875 0
1.875 0.046875 0
1.6875 0.09375 0
1.875 0.09375 0
1.875 0 0
2.0625 0 0
1.875 0.046875 0
2.0625 0.046875 0
2.0625 0 0
2.25 0 0
2.0625 0.046875 0
2.25 0.046875 0
1.875 0.046875 0
2.0625 0.046875 0
1.875 0.09375 0
2.0625 0.09375 0
2.0625 0.046875 0
2.25 0.046875 0
2.0625 0.09375 0
2.25 0.09375 0
1.5 0.09375 0
1.6875 0.09375 0
1.5 0.140625 0
1.6875 0.140625 0
1.6875 0.09375 0
1.875 0.09375 0
1.6875 0.140625 0
1.875 0.140625 0
1.5 0.140625 0
1.6875 0.140625 0
1.5 0.1875 0
1.6875 0.1875 0
1.6875 0.140625 0
1.875 0.140625 0
1.6875 0.1875 0
1.875 0.1875 0
1.875 0.09375 0
2.0625 0.09375 0
1.875 0.140625 0
2.0625 0.140625 0
2.0625 0.09375 0
2.25 0.09375 0
2.0625 0.140625 0
2.25 0.140625 0
1.875 0.140625 0
2.0625 0.140625 0
1.875 0.1875 0
2.0625 0.1875 0
2.0625 0.140625 0
2.25 0.140625 0
2.0625 0.1875 0
2.25 0.1875 0
2.25 0 0
2.4375 0 0
2.25 0.046875 0
2.4375 0.046875 0
2.4375 0 0
2.625 0 0
2.4375 0.046875 0
2.625 0.046875 0
2.25 0.046875 0
2.4375 0.046875 0
2.25 0.09375 0
2.4375 0.09375 0
2.4375 0.046875 0
2.625 0.046875 0
2.4375 0.09375 0
2.625 0.09375 0
2.625 0 0
2.8125 0 0
2.625 0.046875 0
2.8125 0.046875 0
2.8125 0 0
3 0 0
2.8125 0.046875 0
3 0.046875 0
2.625 0.046875 0
2.8125 0.046875 0
2.625 0.09375 0
2.8125 0.09375 0
2.8125 0.046875 0
3 0.046875 0
2.8125 0.09375 0
3 0.09375 0
2.25 0.09375 0
2.4375 0.09375 0
2.25 0.140625 0
2.4375 0.140625 0
2.4375 0.09375 0
2.625 0.09375 0
2.4375 0.140625 0
2.625 0.140625 0
2.25 0.140625 0
2.4375 0.140625 0
2.25 0.1875 0
2.4375 0.1875 0
2.4375 0.140625 0
2.625 0.140625 0
2.4375 0.1875 0
2.625 0.1875 0
2.625 0.09375 0
2.8125 0.09375 0
2.625 0.140625 0
2.8125 0.140625 0
2.8125 0.09375 0
3 0.09375 0
2.8125 0.140625 0
3 0.140625 0
2.625 0.140625 0
2.8125 0.140625 0
2.625 0.1875 0
2.8125 0.1875 0
2.8125 0.140625 0
3 0.140625 0
2.8125 0.1875 0
3 0.1875 0
1.5 0.1875 0
1.6875 0.1875 0
1.5 0.234375 0
1.6875 0.234375 0
1.6875 0.1875 0
1.875 0.1875 0
1.6875 0.234375 0
1.875 0.234375 0
1.5 0.234375 0
1.6875 0.234375 0
1.5 0.28125 0
1.6875 0.28125 0
1.6875 0.234375 0
1.875 0.234375 0
1.6875 0.28125 0
1.875 0.28125 0
1.875 0.1875 0
2.0625 0.1875 0
1.875 0.234375 0
2.0625 0.234375 0
2.0625 0.1875 0
2.25 0.1875 0
2.0625 0.234375 0
2.25 0.234375 0
1.875 0.234375 0
2.0625 0.234375 0
1.875 0.28125 0
2.0625 0.28125 0
2.0625 0.234375 0
2.25 0.234375 0
2.0625 0.28125 0
2.25 0.28125 0
1.5 0.28125 0
1.6875 0.28125 0
1.5 0.328125 0
1.6875 0.328125 0
1.6875 0.28125 0
1.875 0.28125 0
1.6875 0.328125 0
1.875 0.328125 0
1.5 0.328125 0
1.6875 0.328125 0
1.5 0.375 0
1.6875 0.375 0
1.6875 0.328125 0
1.875 0.328125 0
1.6875 0.375 0
1.875 0.375 0
1.875 0.28125 0
2.0625 0.28125 0
1.875 0.328125 0
2.0625 0.328125 0
2.0625 0.28125 0
2.25 0.28125 0
2.0625 0.328125 0
2.25 0.328125 0
1.875 0.328125 0
2.0625 0.328125 0
1.875 0.375 0
2.0625 0.375 0
2.0625 0.328125 0
2.25 0.328125 0
2.0625 0.375 0
2.25 0.375 0
2.25 0.1875 0
2.4375 0.1875 0
2.25 0.234375 0
2.4375 0.234375 0
2.4375 0.1875 0
2.625 0.1875 0
2.4375 0.234375 0
2.625 0.234375 0
2.25 0.234375 0
2.4375 0.234375 0
2.25 0.28125 0
2.4375 0.28125 0
2.4375 0.234375 0
2.625 0.234375 0
2.4375 0.28125 0
2.625 0.28125 0
2.625 0.1875 0
2.8125 0.1875 0
2.625 0.234375 0
2.8125 0.234375 0
2.8125 0.1875 0
3 0.1875 0
2.8125 0.234375 0
3 0.234375 0
2.625 0.234375 0
2.8125 0.234375 0
2.625 0.28125 0
2.8125 0.28125 0
2.8125 0.234375 0
3 0.234375 0
2.8125 0.28125 0
3 0.28125 0
2.25 0.28125 0
2.4375 0.28125 0
2.25 0.328125 0
2.4375 0.328125 0
2.4375 0.28125 0
2.625 0.28125 0
2.4375 0.328125 0
2.625 0.328125 0
2.25 0.328125 0
2.4375 0.328125 0
2.25 0.375 0
2.4375 0.375 0
2.4375 0.328125 0
2.625 0.328125 0
2.4375 0.375 0
2.625 0.375 0
2.625 0.28125 0
2.8125 0.28125 0
2.625 0.328125 0
2.8125 0.328125 0
2.8125 0.28125 0
3 0.28125 0
2.8125 0.328125 0
3 0.328125 0
2.625 0.328125 0
2.8125 0.328125 0
2.625 0.375 0
2.8125 0.375 0
2.8125 0.328125 0
3 0.328125 0
2.8125 0.375 0
3 0.375 0
0 0.375 0
0.1875 0.375 0
0 0.421875 0
0.1875 0.421875 0
0.1875 0.375 0
0.375 0.375 0
0.1875 0.421875 0
0.375 0.421875 0
0 0.421875 0
0.1875 0.421875 0
0 0.46875 0
0.1875 0.46875 0
0.1875 0.421875 0
0.375 0.421875 0
0.1875 0.46875 0
0.375 0.46875 0
0.375 0.375 0
0.5625 0.375 0
0.375 0.421875 0
0.5625 0.421875 0
0.5625 0.375 0
0.75 0.375 0
0.5625 0.421875 0
0.75 0.421875 0
0.375 0.421875 0
0.5625 0.421875 0
0.375 0.46875 0
0.5625 0.46875 0
0.5625 0.421875 0
0.75 0.421875 0
0.5625 0.46875 0
0.75 0.46875 0
0 0.46875 0
0.1875 0.46875 0
0 0.515625 0
0.1875 0.515625 0
0.1875 0.46875 0
0.375 0.46875 0
0.1875 0.515625 0
0.375 0.515625 0
0 0.515625 0
0.1875 0.515625 0
0 0.5625 0
0.1875 0.5625 0
0.1875 0.515625 0
0.375 0.515625 0
0.1875 0.5625 0
0.375 0.5625 0
0.375 0.46875 0
0.5625 0.46875 0
0.375 0.515625 0
0.5625 0.515625 0
0.5625 0.46875 0
0.75 0.46875 0
0.5625 0.515625 0
0.75 0.515625 0
0.375 0.515625 0
0.5625 0.515625 0
0.375 0.5625 0
0.5625 0.5625 0
0.5625 0.515625 0
0.75 0.515625 0
0.5625 0.5625 0
0.75 0.5625 0
0.75 0.375 0
0.9375 0.375 0
0.75 0.421875 0
0.9375 0.421875 0
0.9375 0.375 0
1.125 0.375 0
0.9375 0.421875 0
1.125 0.421875 0
0.75 0.421875 0
0.9375 0.421875 0
0.75 0.46875 0
0.9375 0.46875 0
0.9375 0.421875 0
1.125 0.421875 0
0.9375 0.46875 0
1.125 0.46875 0
1.125 0.375 0
1.3125 0.375 0
1.125 0.421875 0
1.3125 0.421875 0
1.3125 0.375 0
1.5 0.375 0
1.3125 0.421875 0
1.5 0.421875 0
1.125 0.421875 0
1.3125 0.421875 0
1.125 0.46875 0
1.3125 0.46875 0
1.3125 0.421875 0
1.5 0.421875 0
1.3125 0.46875 0
1.5 0.46875 0
0.75 0.46875 0
0.9375 0.46875 0
0.75 0.515625 0
0.9375 0.515625 0
0.9375 0.46875 0
1.125 0.46875 0
0.9375 0.515625 0
1.125 0.515625 0
0.75 0.515625 0
0.9375 0.515625 0
[...]
POINT_DATA 16384
SCALARS x_displacement double 1
LOOKUP_TABLE default
0 0.0333818 0 0.029874 0.0333818 0.0588397 0.029874 0.0572228 0 0.029874 0 0.0274663 0.029874 0.0572228 0.0274663 0.0545009 0.0588397 0.0746911 0.0572228 0.0734407 0.0746911 0.0807594 0.0734407 0.0800001 0.0572228 0.0734407 0.0545009 0.0714978 0.0734407 0.0800001 0.0714978 0.0787948 0 0.0274663 0 0.0254868 0.0274663 0.0545009 0.0254868 0.0509783 0 0.0254868 0 0.0238237 0.0254868 0.0509783 0.0238237 0.0473937 0.0545009 0.0714978 0.0509783 0.0687619 0.0714978 0.0787948 0.0687619 0.0771819 0.0509783 0.0687619 0.0473937 0.0650852 0.0687619 0.0771819 0.0650852 0.0752933 0.0807594 0.0863993 0.0800001 0.0860979 0.0863993 0.0925772 0.0860979 0.0926114 0.0800001 0.0860979 0.0787948 0.0855558 0.0860979 0.0926114 0.0855558 0.0924612 0.0925772 0.0988269 0.0926114 0.0989989 0.0988269 0.104778 0.0989989 0.105009 0.0926114 0.0989989 0.0924612 0.0990416 0.0989989 0.105009 0.0990416 0.105142 0.0787948 0.0855558 0.0771819 0.0848136 0.0855558 0.0924612 0.0848136 0.0921549 0.0771819 0.0848136 0.0752933 0.0839184 0.0848136 0.0921549 0.0839184 0.0917146 0.0924612 0.0990416 0.0921549 0.0989648 0.0990416 0.105142 0.0989648 0.105184 0.0921549 0.0989648 0.0917146 0.0987828 0.0989648 0.105184 0.0987828 0.105142 0 0.0238237 0 0.0224159 0.0238237 0.0473937 0.0224159 0.044038 0 0.0224159 0 0.0211783 0.0224159 0.044038 0.0211783 0.0413786 0.0473937 0.0650852 0.044038 0.0613488 0.0650852 0.0752933 0.0613488 0.0733648 0.044038 0.0613488 0.0413786 0.0583572 0.0613488 0.0733648 0.0583572 0.0714324 0 0.0211783 0 0.0201357 0.0211783 0.0413786 0.0201357 0.0392699 0 0.0201357 0 0.0192774 0.0201357 0.0392699 0.0192774 0.0375898 0.0413786 0.0583572 0.0392699 0.0559666 0.0583572 0.0714324 0.0559666 0.0696234 0.0392699 0.0559666 0.0375898 0.0540148 0.0559666 0.0696234 0.0540148 0.0679869 0.0752933 0.0839184 0.0733648 0.0828932 0.0839184 0.0917146 0.0828932 0.0911681 0.0733648 0.0828932 0.0714324 0.0817954 0.0828932 0.0911681 0.0817954 0.0905369 0.0917146 0.0987828 0.0911681 0.0985088 0.0987828 0.105142 0.0985088 0.105025 0.0911681 0.0985088 0.0905369 0.0981573 0.0985088 0.105025 0.0981573 0.10484 0.0714324 0.0817954 0.0696234 0.0806585 0.0817954 0.0905369 0.0806585 0.0898454 0.0696234 0.0806585 0.0679869 0.079524 0.0806585 0.0898454 0.079524 0.089113 0.0905369 0.0981573 0.0898454 0.0977415 0.0981573 0.10484 0.0977415 0.104597 0.0898454 0.0977415 0.089113 0.0972751 0.0977415 0.104597 0.0972751 0.104304 0.104778 0.110272 0.105009 0.110517 0.110272 0.115245 0.110517 0.115474 0.105009 0.110517 0.105142 0.110686 0.110517 0.115474 0.110686 0.115644 0.115245 0.119677 0.115474 0.119872 0.119677 0.123577 0.119872 0.123728 0.115474 0.119872 0.115644 0.120022 0.119872 0.123728 0.120022 0.123843 0.105142 0.110686 0.105184 0.110782 0.110686 0.115644 0.110782 0.115757 0.105184 0.110782 0.105142 0.110813 0.110782 0.115757 0.110813 0.115817 0.115644 0.120022 0.115757 0.120126 0.120022 0.123843 0.120126 0.123924 0.115757 0.120126 0.115817 0.120189 0.120126 0.123924 0.120189 0.123971 0.123577 0.126969 0.123728 0.12707 0.126969 0.12989 0.12707 0.129938 0.123728 0.12707 0.123843 0.127143 0.12707 0.129938 0.127143 0.129966 0.12989 0.132378 0.129938 0.132375 0.132378 0.13448 0.132375 0.134427 0.129938 0.132375 0.129966 0.132358 0.132375 0.134427 0.132358 0.134366 0.123843 0.127143 0.123924 0.127191 0.127143 0.129966 0.127191 0.129975 0.123924 0.127191 0.123971 0.127212 0.127191 0.129975 0.127212 0.129964 0.129966 0.132358 0.129975 0.132326 0.132358 0.134366 0.132326 0.134294 0.129975 0.132326 0.129964 0.13228 0.132326 0.134294 0.13228 0.134212 0.105142 0.110813 0.105025 0.110781 0.110813 0.115817 0.110781 0.115826 0.105025 0.110781 0.10484 0.110693 0.110781 0.115826 0.110693 0.115789 0.115817 0.120189 0.115826 0.120211 0.120189 0.123971 0.120211 0.123986 0.115826 0.120211 0.115789 0.120194 0.120211 0.123986 0.120194 0.12397 0.10484 0.110693 0.104597 0.110554 0.110693 0.115789 0.110554 0.115709 0.104597 0.110554 0.104304 0.110369 0.110554 0.115709 0.110369 0.115589 0.115789 0.120194 0.115709 0.120142 0.120194 0.12397 0.120142 0.123926 0.115709 0.120142 0.115589 0.120057 0.120142 0.123926 0.120057 0.123853 0.123971 0.127212 0.123986 0.127208 0.127212 0.129964 0.127208 0.129934 0.123986 0.127208 0.12397 0.12718 0.127208 0.129934 0.12718 0.129885 0.129964 0.13228 0.129934 0.13222 0.13228 0.134212 0.13222 0.13412 0.129934 0.13222 0.129885 0.132145 0.13222 0.13412 0.132145 0.134017 0.12397 0.12718 0.123926 0.127129 0.12718 0.129885 0.127129 0.129818 0.123926 0.127129 0.123853 0.127054 0.127129 0.129818 0.127054 0.129732 0.129885 0.132145 0.129818 0.132056 0.132145 0.134017 0.132056 0.133903 0.129818 0.132056 0.129732 0.131952 0.132056 0.133903 0.131952 0.133778 0 0.0192774 0 0.0185788 0.0192774 0.0375898 0.0185788 0.0362423 0 0.0185788 0 0.0180126 0.0185788 0.0362423 0.0180126 0.0351542 0.0375898 0.0540148 0.0362423 0.0524016 0.0540148 0.0679869 0.0524016 0.0665272 0.0362423 0.0524016 0.0351542 0.0510568 0.0524016 0.0665272 0.0510568 0.0652338 0 0.0180126 0 0.0175533 0.0180126 0.0351542 0.0175533 0.0342696 0 0.0175533 0 0.0171795 0.0175533 0.0342696 0.0171795 0.0335453 0.0351542 0.0510568 0.0342696 0.0499283 0.0510568 0.0652338 0.0499283 0.0640911 0.0342696 0.0499283 0.0335453 0.048976 0.0499283 0.0640911 0.048976 0.0630827 0.0679869 0.079524 0.0665272 0.0784243 0.079524 0.089113 0.0784243 0.0883583 0.0665272 0.0784243 0.0652338 0.0773796 0.0784243 0.0883583 0.0773796 0.0875982 0.089113 0.0972751 0.0883583 0.0967702 0.0972751 0.104304 0.0967702 0.103969 0.0883583 0.0967702 0.0875982 0.096238 0.0967702 0.103969 0.096238 0.103599 0.0652338 0.0773796 0.0640911 0.0764005 0.0773796 0.0875982 0.0764005 0.0868465 0.0640911 0.0764005 0.0630827 0.0754911 0.0764005 0.0868465 0.0754911 0.0861136 0.0875982 0.096238 0.0868465 0.0956885 0.096238 0.103599 0.0956885 0.103203 0.0868465 0.0956885 0.0861136 0.0951306 0.0956885 0.103203 0.0951306 0.102786 0 0.0171795 0 0.0168735 0.0171795 0.0335453 0.0168735 0.032948 0 0.0168735 0 0.0166214 0.0168735 0.032948 0.0166214 0.0324518 0.0335453 0.048976 0.032948 0.0481678 0.048976 0.0630827 0.0481678 0.0621925 0.032948 0.0481678 0.0324518 0.0474784 0.0481678 0.0621925 0.0474784 0.0614059 0 0.0166214 0 0.016412 0.0166214 0.0324518 0.016412 0.0320364 0 0.016412 0 0.0162367 0.016412 0.0320364 0.0162367 0.0316859 0.0324518 0.0474784 0.0320364 0.046887 0.0474784 0.0614059 0.046887 0.0607095 0.0320364 0.046887 0.0316859 0.0463768 0.046887 0.0607095 0.0463768 0.0600916 0.0630827 0.0754911 0.0621925 0.0746517 0.0754911 0.0861136 0.0746517 0.0854067 0.0621925 0.0746517 0.0614059 0.0738801 0.0746517 0.0854067 0.0738801 0.0847306 0.0861136 0.0951306 0.0854067 0.0945718 0.0951306 0.102786 0.0945718 0.102355 0.0854067 0.0945718 0.0847306 0.0940182 0.0945718 0.102355 0.0940182 0.101915 0.0614059 0.0738801 0.0607095 0.0731726 0.0738801 0.0847306 0.0731726 0.084088 0.0607095 0.0731726 0.0600916 0.0725247 0.0731726 0.084088 0.0725247 0.0834802 0.0847306 0.0940182 0.084088 0.0934746 0.0940182 0.101915 0.0934746 0.101471 0.084088 0.0934746 0.0834802 0.0929446 0.0934746 0.101471 0.0929446 0.101026 0.104304 0.110369 0.103969 0.110145 0.110369 0.115589 0.110145 0.115434 0.103969 0.110145 0.103599 0.109886 0.110145 0.115434 0.109886 0.115247 0.115589 0.120057 0.115434 0.11994 0.120057 0.123853 0.11994 0.123755 0.115434 0.11994 0.115247 0.119796 0.11994 0.123755 0.119796 0.123632 0.103599 0.109886 0.103203 0.109598 0.109886 0.115247 0.109598 0.115031 0.103203 0.109598 0.102786 0.109286 0.109598 0.115031 0.109286 0.114791 0.115247 0.119796 0.115031 0.119625 0.119796 0.123632 0.119625 0.123486 0.115031 0.119625 0.114791 0.119432 0.119625 0.123486 0.119432 0.12332 0.123853 0.127054 0.123755 0.126959 0.127054 0.129732 0.126959 0.129629 0.123755 0.126959 0.123632 0.126842 0.126959 0.129629 0.126842 0.129509 0.129732 0.131952 0.129629 0.131835 0.131952 0.133778 0.131835 0.133643 0.129629 0.131835 0.129509 0.131704 0.131835 0.133643 0.131704 0.133496 0.123632 0.126842 0.123486 0.126707 0.126842 0.129509 0.126707 0.129372 0.123486 0.126707 0.12332 0.126553 0.126707 0.129372 0.126553 0.129221 0.129509 0.131704 0.129372 0.13156 0.131704 0.133496 0.13156 0.133339 0.129372 0.13156 0.129221 0.131402 0.13156 0.133339 0.131402 0.133171 0.102786 0.109286 0.102355 0.108953 0.109286 0.114791 0.108953 0.114529 0.102355 0.108953 0.101915 0.108605 0.108953 0.114529 0.108605 0.114248 0.114791 0.119432 0.114529 0.119217 0.119432 0.12332 0.119217 0.123134 0.114529 0.119217 0.114248 0.118984 0.119217 0.123134 0.118984 0.122931 0.101915 0.108605 0.101471 0.108245 0.108605 0.114248 0.108245 0.113953 0.101471 0.108245 0.101026 0.107876 0.108245 0.113953 0.107876 0.113644 0.114248 0.118984 0.113953 0.118734 0.118984 0.122931 0.118734 0.122712 0.113953 0.118734 0.113644 0.118471 0.118734 0.122712 0.118471 0.122478 0.12332 0.126553 0.123134 0.126382 0.126553 0.129221 0.126382 0.129054 0.123134 0.126382 0.122931 0.126196 0.126382 0.129054 0.126196 0.128874 0.129221 0.131402 0.129054 0.131233 0.131402 0.133171 0.131233 0.132993 0.129054 0.131233 0.128874 0.131051 0.131233 0.132993 0.131051 0.132805 0.122931 0.126196 0.122712 0.125994 0.126196 0.128874 0.125994 0.12868 0.122712 0.125994 0.122478 0.125779 0.125994 0.12868 0.125779 0.128474 0.128874 0.131051 0.12868 0.130858 0.131051 0.132805 0.130858 0.132606 0.12868 0.130858 0.128474 0.130653 0.130858 0.132606 0.130653 0.132398 0.13448 0.136238 0.134427 0.13614 0.136238 0.137696 0.13614 0.137557 0.134427 0.13614 0.134366 0.136037 0.13614 0.137557 0.136037 0.137416 0.137696 0.138894 0.137557 0.13872 0.138894 0.139872 0.13872 0.139666 0.137557 0.13872 0.137416 0.138544 0.13872 0.139666 0.138544 0.139461 0.134366 0.136037 0.134294 0.135927 0.136037 0.137416 0.135927 0.137271 0.134294 0.135927 0.134212 0.13581 0.135927 0.137271 0.13581 0.137121 0.137416 0.138544 0.137271 0.138367 0.138544 0.139461 0.138367 0.139255 0.137271 0.138367 0.137121 0.138188 0.138367 0.139255 0.138188 0.139049 0.139872 0.140662 0.139666 0.14043 0.140662 0.141296 0.14043 0.141042 0.139666 0.14043 0.139461 0.140199 0.14043 0.141042 0.140199 0.140789 0.141296 0.141801 0.141042 0.141528 0.141801 0.1422 0.141528 0.141912 0.141042 0.141528 0.140789 0.141257 0.141528 0.141912 0.141257 0.141626 0.139461 0.140199 0.139255 0.139969 0.140199 0.140789 0.139969 0.140538 0.139255 0.139969 0.139049 0.139739 0.139969 0.140538 0.139739 0.140288 0.140789 0.141257 0.140538 0.140988 0.141257 0.141626 0.140988 0.141343 0.140538 0.140988 0.140288 0.140721 0.140988 0.141343 0.140721 0.14106 0.134212 0.13581 0.13412 0.135686 0.13581 0.137121 0.135686 0.136967 0.13412 0.135686 0.134017 0.135555 0.135686 0.136967 0.135555 0.136807 0.137121 0.138188 0.136967 0.138005 0.138188 0.139049 0.138005 0.138841 0.136967 0.138005 0.136807 0.13782 0.138005 0.138841 0.13782 0.138632 0.134017 0.135555 0.133903 0.135415 0.135555 0.136807 0.135415 0.136642 0.133903 0.135415 0.133778 0.135267 0.135415 0.136642 0.135267 0.136471 0.136807 0.13782 0.136642 0.137631 0.13782 0.138632 0.137631 0.13842 0.136642 0.137631 0.136471 0.137437 0.137631 0.13842 0.137437 0.138205 0.139049 0.139739 0.138841 0.139509 0.139739 0.140288 0.139509 0.140038 0.138841 0.139509 0.138632 0.139278 0.139509 0.140038 0.139278 0.139788 0.140288 0.140721 0.140038 0.140454 0.140721 0.14106 0.140454 0.14078 0.140038 0.140454 0.139788 0.140188 0.140454 0.14078 0.140188 0.1405 0.138632 0.139278 0.13842 0.139045 0.139278 0.139788 0.139045 0.139538 0.13842 0.139045 0.138205 0.138812 0.139045 0.139538 0.138812 0.139286 0.139788 0.140188 0.139538 0.139922 0.140188 0.1405 0.139922 0.14022 0.139538 0.139922 0.139286 0.139656 0.139922 0.14022 0.139656 0.139941 0.1422 0.142513 0.141912 0.142212 0.142513 0.142756 0.142212 0.142446 0.141912 0.142212 0.141626 0.141915 0.142212 0.142446 0.141915 0.142139 0.142756 0.142943 0.142446 0.142626 0.142943 0.143087 0.142626 0.142764 0.142446 0.142626 0.142139 0.142311 0.142626 0.142764 0.142311 0.142443 0.141626 0.141915 0.141343 0.141619 0.141915 0.142139 0.141619 0.141833 0.141343 0.141619 0.14106 0.141325 0.141619 0.141833 0.141325 0.141529 0.142139 0.142311 0.141833 0.141998 0.142311 0.142443 0.141998 0.142124 0.141833 0.141998 0.141529 0.141686 0.141998 0.142124 0.141686 0.141806 0.143087 0.143195 0.142764 0.142869 0.143195 0.143277 0.142869 0.142948 0.142764 0.142869 0.142443 0.142543 0.142869 0.142948 0.142543 0.142619 0.143277 0.143338 0.142948 0.143006 0.143338 0.143384 0.143006 0.14305 0.142948 0.143006 0.142619 0.142676 0.143006 0.14305 0.142676 0.142717 0.142443 0.142543 0.142124 0.14222 0.142543 0.142619 0.14222 0.142292 0.142124 0.14222 0.141806 0.141897 0.14222 0.142292 0.141897 0.141966 0.142619 0.142676 0.142292 0.142346 0.142676 0.142717 0.142346 0.142386 0.142292 0.142346 0.141966 0.142017 0.142346 0.142386 0.142017 0.142055 0.14106 0.141325 0.14078 0.141032 0.141325 0.141529 0.141032 0.141227 0.14078 0.141032 0.1405 0.140741 0.141032 0.141227 0.140741 0.140926 0.141529 0.141686 0.141227 0.141376 0.141686 0.141806 0.141376 0.14149 0.141227 0.141376 0.140926 0.141067 0.141376 0.14149 0.141067 0.141175 0.1405 0.140741 0.14022 0.14045 0.140741 0.140926 0.14045 0.140625 0.14022 0.14045 0.139941 0.140159 0.14045 0.140625 0.140159 0.140326 0.140926 0.141067 0.140625 0.140759 0.141067 0.141175 0.140759 0.14086 0.140625 0.140759 0.140326 0.140452 0.140759 0.14086 0.140452 0.140546 0.141806 0.141897 0.14149 0.141576 0.141897 0.141966 0.141576 0.14164 0.14149 0.141576 0.141175 0.141256 0.141576 0.14164 0.141256 0.141316 0.141966 0.142017 0.14164 0.141689 0.142017 0.142055 0.141689 0.141724 0.14164 0.141689 0.141316 0.141361 0.141689 0.141724 0.141361 0.141395 0.141175 0.141256 0.14086 0.140936 0.141256 0.141316 0.140936 0.140993 0.14086 0.140936 0.140546 0.140617 0.140936 0.140993 0.140617 0.14067 0.141316 0.141361 0.140993 0.141035 0.141361 0.141395 0.141035 0.141066 0.140993 0.141035 0.14067 0.140709 0.141035 0.141066 0.140709 0.140737 0.133778 0.135267 0.133643 0.135111 0.135267 0.136471 0.135111 0.136294 0.133643 0.135111 0.133496 0.134947 0.135111 0.136294 0.134947 0.136111 0.136471 0.137437 0.136294 0.137239 0.137437 0.138205 0.137239 0.137988 0.136294 0.137239 0.136111 0.137036 0.137239 0.137988 0.137036 0.137767 0.133496 0.134947 0.133339 0.134774 0.134947 0.136111 0.134774 0.135921 0.133339 0.134774 0.133171 0.134592 0.134774 0.135921 0.134592 0.135724 0.136111 0.137036 0.135921 0.136829 0.137036 0.137767 0.136829 0.137542 0.135921 0.136829 0.135724 0.136616 0.136829 0.137542 0.136616 0.137313 0.138205 0.138812 0.137988 0.138576 0.138812 0.139286 0.138576 0.139034 0.137988 0.138576 0.137767 0.138338 0.138576 0.139034 0.138338 0.13878 0.139286 0.139656 0.139034 0.139389 0.139656 0.139941 0.139389 0.139661 0.139034 0.139389 0.13878 0.139121 0.139389 0.139661 0.139121 0.139381 0.137767 0.138338 0.137542 0.138097 0.138338 0.13878 0.138097 0.138525 0.137542 0.138097 0.137313 0.137853 0.138097 0.138525 0.137853 0.138267 0.13878 0.139121 0.138525 0.138852 0.139121 0.139381 0.138852 0.139101 0.138525 0.138852 0.138267 0.138582 0.138852 0.139101 0.138582 0.138819 0.133171 0.134592 0.132993 0.134402 0.134592 0.135724 0.134402 0.13552 0.132993 0.134402 0.132805 0.134204 0.134402 0.13552 0.134204 0.135309 0.135724 0.136616 0.13552 0.136398 0.136616 0.137313 0.136398 0.13708 0.13552 0.136398 0.135309 0.136174 0.136398 0.13708 0.136174 0.136843 0.132805 0.134204 0.132606 0.133997 0.134204 0.135309 0.133997 0.135091 0.132606 0.133997 0.132398 0.133782 0.133997 0.135091 0.133782 0.134867 0.135309 0.136174 0.135091 0.135944 0.136174 0.136843 0.135944 0.136601 0.135091 0.135944 0.134867 0.135709 0.135944 0.136601 0.135709 0.136354 0.137313 0.137853 0.13708 0.137606 0.137853 0.138267 0.137606 0.138007 0.13708 0.137606 0.136843 0.137356 0.137606 0.138007 0.137356 0.137744 0.138267 0.138582 0.138007 0.13831 0.138582 0.138819 0.13831 0.138537 0.138007 0.13831 0.137744 0.138036 0.13831 0.138537 0.138036 0.138252 0.136843 0.137356 0.136601 0.137102 0.137356 0.137744 0.137102 0.137479 0.136601 0.137102 0.136354 0.136844 0.137102 0.137479 0.136844 0.13721 0.137744 0.138036 0.137479 0.13776 0.138036 0.138252 0.13776 0.137967 0.137479 0.13776 0.13721 0.137481 0.13776 0.137967 0.137481 0.137679 0.139941 0.140159 0.139661 0.139869 0.140159 0.140326 0.139869 0.140026 0.139661 0.139869 0.139381 0.139579 0.139869 0.140026 0.139579 0.139727 0.140326 0.140452 0.140026 0.140144 0.140452 0.140546 0.140144 0.140233 0.140026 0.140144 0.139727 0.139838 0.140144 0.140233 0.139838 0.13992 0.139381 0.139579 0.139101 0.139288 0.139579 0.139727 0.139288 0.139427 0.139101 0.139288 0.138819 0.138996 0.139288 0.139427 0.138996 0.139128 0.139727 0.139838 0.139427 0.139531 0.139838 0.13992 0.139531 0.139607 0.139427 0.139531 0.139128 0.139224 0.139531 0.139607 0.139224 0.139294 0.140546 0.140617 0.140233 0.140299 0.140617 0.14067 0.140299 0.140347 0.140233 0.140299 0.13992 0.139981 0.140299 0.140347 0.139981 0.140025 0.14067 0.140709 0.140347 0.140383 0.140709 0.140737 0.140383 0.140409 0.140347 0.140383 0.140025 0.140058 0.140383 0.140409 0.140058 0.140081 0.13992 0.139981 0.139607 0.139663 0.139981 0.140025 0.139663 0.139703 0.139607 0.139663 0.139294 0.139345 0.139663 0.139703 0.139345 0.139382 0.140025 0.140058 0.139703 0.139733 0.140058 0.140081 0.139733 0.139753 0.139703 0.139733 0.139382 0.139408 0.139733 0.139753 0.139408 0.139426 0.138819 0.138996 0.138537 0.138704 0.138996 0.139128 0.138704 0.138828 0.138537 0.138704 0.138252 0.138411 0.138704 0.138828 0.138411 0.138527 0.139128 0.139224 0.138828 0.138917 0.139224 0.139294 0.138917 0.138981 0.138828 0.138917 0.138527 0.138609 0.138917 0.138981 0.138609 0.138668 0.138252 0.138411 0.137967 0.138117 0.138411 0.138527 0.138117 0.138225 0.137967 0.138117 0.137679 0.137821 0.138117 0.138225 0.137821 0.137922 0.138527 0.138609 0.138225 0.138301 0.138609 0.138668 0.138301 0.138355 0.138225 0.138301 0.137922 0.137992 0.138301 0.138355 0.137992 0.138041 0.139294 0.139345 0.138981 0.139028 0.139345 0.139382 0.139028 0.13906 0.138981 0.139028 0.138668 0.13871 0.139028 0.13906 0.13871 0.138738 0.139382 0.139408 0.13906 0.139083 0.139408 0.139426 0.139083 0.139099 0.13906 0.139083 0.138738 0.138758 0.139083 0.139099 0.138758 0.138771 0.138668 0.13871 0.138355 0.138392 0.13871 0.138738 0.138392 0.138417 0.138355 0.138392 0.138041 0.138073 0.138392 0.138417 0.138073 0.138095 0.138738 0.138758 0.138417 0.138433 0.138758 0.138771 0.138433 0.138444 0.138417 0.138433 0.138095 0.138108 0.138433 0.138444 0.138108 0.138117 0 0.0162367 0 0.0160886 0.0162367 0.0316859 0.0160886 0.0313876 0 0.0160886 0 0.0159624 0.0160886 0.0313876 0.0159624 0.0311317 0.0316859 0.0463768 0.0313876 0.0459343 0.0463768 0.0600916 0.0459343 0.0595419 0.0313876 0.0459343 0.0311317 0.045548 0.0459343 0.0595419 0.045548 0.0590513 0 0.0159624 0 0.0158538 0.0159624 0.0311317 0.0158538 0.0309102 0 0.0158538 0 0.0157594 0.0158538 0.0309102 0.0157594 0.0307169 0.0311317 0.045548 0.0309102 0.0452089 0.045548 0.0590513 0.0452089 0.0586119 0.0309102 0.0452089 0.0307169 0.0449092 0.0452089 0.0586119 0.0449092 0.058217 0.0600916 0.0725247 0.0595419 0.0719317 0.0725247 0.0834802 0.0719317 0.0829072 0.0595419 0.0719317 0.0590513 0.0713888 0.0719317 0.0829072 0.0713888 0.0823685 0.0834802 0.0929446 0.0829072 0.0924308 0.0929446 0.101026 0.0924308 0.100584 0.0829072 0.0924308 0.0823685 0.0919351 0.0924308 0.100584 0.0919351 0.100148 0.0590513 0.0713888 0.0586119 0.0708915 0.0713888 0.0823685 0.0708915 0.0818627 0.0586119 0.0708915 0.058217 0.0704353 0.0708915 0.0818627 0.0704353 0.0813885 0.0823685 0.0919351 0.0818627 0.0914584 0.0919351 0.100148 0.0914584 0.0997188 0.0818627 0.0914584 0.0813885 0.0910015 0.0914584 0.0997188 0.0910015 0.099299 0 0.0157594 0 0.0156766 0.0157594 0.0307169 0.0156766 0.0305467 0 0.0156766 0 0.0156032 0.0156766 0.0305467 0.0156032 0.0303955 0.0307169 0.0449092 0.0305467 0.0446427 0.0449092 0.058217 0.0446427 0.0578607 0.0305467 0.0446427 0.0303955 0.0444043 0.0446427 0.0578607