# vtk DataFile Version 3.0
#This file was generated by the deal.II library on 2022/1/6 at 23:03:20
ASCII
DATASET UNSTRUCTURED_GRID

POINTS 16384 double
0 0 0
0.1875 0 0
0 0.046875 0
0.1875 0.046875 0
0.1875 0 0
0.375 0 0
0.1875 0.046875 0
0.375 0.046875 0
0 0.046875 0
0.1875 0.046875 0
0 0.09375 0
0.1875 0.09375 0
0.1875 0.046875 0
0.375 0.046875 0
0.1875 0.09375 0
0.375 0.09375 0
0.375 0 0
0.5625 0 0
0.375 0.046875 0
0.5625 0.046875 0
0.5625 0 0
0.75 0 0
0.5625 0.046875 0
0.75 0.046875 0
0.375 0.046875 0
0.5625 0.046875 0
0.375 0.09375 0
0.5625 0.09375 0
0.5625 0.046875 0
0.75 0.046875 0
0.5625 0.09375 0
0.75 0.09375 0
0 0.09375 0
0.1875 0.09375 0
0 0.140625 0
0.1875 0.140625 0
0.1875 0.09375 0
0.375 0.09375 0
0.1875 0.140625 0
0.375 0.140625 0
0 0.140625 0
0.1875 0.140625 0
0 0.1875 0
0.1875 0.1875 0
0.1875 0.140625 0
0.375 0.140625 0
0.1875 0.1875 0
0.375 0.1875 0
0.375 0.09375 0
0.5625 0.09375 0
0.375 0.140625 0
0.5625 0.140625 0
0.5625 0.09375 0
0.75 0.09375 0
0.5625 0.140625 0
0.75 0.140625 0
0.375 0.140625 0
0.5625 0.140625 0
0.375 0.1875 0
0.5625 0.1875 0
0.5625 0.140625 0
0.75 0.140625 0
0.5625 0.1875 0
0.75 0.1875 0
0.75 0 0
0.9375 0 0
0.75 0.046875 0
0.9375 0.046875 0
0.9375 0 0
1.125 0 0
0.9375 0.046875 0
1.125 0.046875 0
0.75 0.046875 0
0.9375 0.046875 0
0.75 0.09375 0
0.9375 0.09375 0
0.9375 0.046875 0
1.125 0.046875 0
0.9375 0.09375 0
1.125 0.09375 0
1.125 0 0
1.3125 0 0
1.125 0.046875 0
1.3125 0.046875 0
1.3125 0 0
1.5 0 0
1.3125 0.046875 0
1.5 0.046875 0
1.125 0.046875 0
1.3125 0.046875 0
1.125 0.09375 0
1.3125 0.09375 0
1.3125 0.046875 0
1.5 0.046875 0
1.3125 0.09375 0
1.5 0.09375 0
0.75 0.09375 0
0.9375 0.09375 0
0.75 0.140625 0
0.9375 0.140625 0
0.9375 0.09375 0
1.125 0.09375 0
0.9375 0.140625 0
1.125 0.140625 0
0.75 0.140625 0
0.9375 0.140625 0
0.75 0.1875 0
0.9375 0.1875 0
0.9375 0.140625 0
1.125 0.140625 0
0.9375 0.1875 0
1.125 0.1875 0
1.125 0.09375 0
1.3125 0.09375 0
1.125 0.140625 0
1.3125 0.140625 0
1.3125 0.09375 0
1.5 0.09375 0
1.3125 0.140625 0
1.5 0.140625 0
1.125 0.140625 0
1.3125 0.140625 0
1.125 0.1875 0
1.3125 0.1875 0
1.3125 0.140625 0
1.5 0.140625 0
1.3125 0.1875 0
1.5 0.1875 0
0 0.1875 0
0.1875 0.1875 0
0 0.234375 0
0.1875 0.234375 0
0.1875 0.1875 0
0.375 0.1875 0
0.1875 0.234375 0
0.375 0.234375 0
0 0.234375 0
0.1875 0.234375 0
0 0.28125 0
0.1875 0.28125 0
0.1875 0.234375 0
0.375 0.234375 0
0.1875 0.28125 0
0.375 0.28125 0
0.375 0.1875 0
0.5625 0.1875 0
0.375 0.234375 0
0.5625 0.234375 0
0.5625 0.1875 0
0.75 0.1875 0
0.5625 0.234375 0
0.75 0.234375 0
0.375 0.234375 0
0.5625 0.234375 0
0.375 0.28125 0
0.5625 0.28125 0
0.5625 0.234375 0
0.75 0.234375 0
0.5625 0.28125 0
0.75 0.28125 0
0 0.28125 0
0.1875 0.28125 0
0 0.328125 0
0.1875 0.328125 0
0.1875 0.28125 0
0.375 0.28125 0
0.1875 0.328125 0
0.375 0.328125 0
0 0.328125 0
0.1875 0.328125 0
0 0.375 0
0.1875 0.375 0
0.1875 0.328125 0
0.375 0.328125 0
0.1875 0.375 0
0.375 0.375 0
0.375 0.28125 0
0.5625 0.28125 0
0.375 0.328125 0
0.5625 0.328125 0
0.5625 0.28125 0
0.75 0.28125 0
0.5625 0.328125 0
0.75 0.328125 0
0.375 0.328125 0
0.5625 0.328125 0
0.375 0.375 0
0.5625 0.375 0
0.5625 0.328125 0
0.75 0.328125 0
0.5625 0.375 0
0.75 0.375 0
0.75 0.1875 0
0.9375 0.1875 0
0.75 0.234375 0
0.9375 0.234375 0
0.9375 0.1875 0
1.125 0.1875 0
0.9375 0.234375 0
1.125 0.234375 0
0.75 0.234375 0
0.9375 0.234375 0
0.75 0.28125 0
0.9375 0.28125 0
0.9375 0.234375 0
1.125 0.234375 0
0.9375 0.28125 0
1.125 0.28125 0
1.125 0.1875 0
1.3125 0.1875 0
1.125 0.234375 0
1.3125 0.234375 0
1.3125 0.1875 0
1.5 0.1875 0
1.3125 0.234375 0
1.5 0.234375 0
1.125 0.234375 0
1.3125 0.234375 0
1.125 0.28125 0
1.3125 0.28125 0
1.3125 0.234375 0
1.5 0.234375 0
1.3125 0.28125 0
1.5 0.28125 0
0.75 0.28125 0
0.9375 0.28125 0
0.75 0.328125 0
0.9375 0.328125 0
0.9375 0.28125 0
1.125 0.28125 0
0.9375 0.328125 0
1.125 0.328125 0
0.75 0.328125 0
0.9375 0.328125 0
0.75 0.375 0
0.9375 0.375 0
0.9375 0.328125 0
1.125 0.328125 0
0.9375 0.375 0
1.125 0.375 0
1.125 0.28125 0
1.3125 0.28125 0
1.125 0.328125 0
1.3125 0.328125 0
1.3125 0.28125 0
1.5 0.28125 0
1.3125 0.328125 0
1.5 0.328125 0
1.125 0.328125 0
1.3125 0.328125 0
1.125 0.375 0
1.3125 0.375 0
1.3125 0.328125 0
1.5 0.328125 0
1.3125 0.375 0
1.5 0.375 0
1.5 0 0
1.6875 0 0
1.5 0.046875 0
1.6875 0.046875 0
1.6875 0 0
1.875 0 0
1.6875 0.046875 0
1.875 0.046875 0
1.5 0.046875 0
1.6875 0.046875 0
1.5 0.09375 0
1.6875 0.09375 0
1.6875 0.046875 0
1.875 0.046875 0
1.6875 0.09375 0
1.875 0.09375 0
1.875 0 0
2.0625 0 0
1.875 0.046875 0
2.0625 0.046875 0
2.0625 0 0
2.25 0 0
2.0625 0.046875 0
2.25 0.046875 0
1.875 0.046875 0
2.0625 0.046875 0
1.875 0.09375 0
2.0625 0.09375 0
2.0625 0.046875 0
2.25 0.046875 0
2.0625 0.09375 0
2.25 0.09375 0
1.5 0.09375 0
1.6875 0.09375 0
1.5 0.140625 0
1.6875 0.140625 0
1.6875 0.09375 0
1.875 0.09375 0
1.6875 0.140625 0
1.875 0.140625 0
1.5 0.140625 0
1.6875 0.140625 0
1.5 0.1875 0
1.6875 0.1875 0
1.6875 0.140625 0
1.875 0.140625 0
1.6875 0.1875 0
1.875 0.1875 0
1.875 0.09375 0
2.0625 0.09375 0
1.875 0.140625 0
2.0625 0.140625 0
2.0625 0.09375 0
2.25 0.09375 0
2.0625 0.140625 0
2.25 0.140625 0
1.875 0.140625 0
2.0625 0.140625 0
1.875 0.1875 0
2.0625 0.1875 0
2.0625 0.140625 0
2.25 0.140625 0
2.0625 0.1875 0
2.25 0.1875 0
2.25 0 0
2.4375 0 0
2.25 0.046875 0
2.4375 0.046875 0
2.4375 0 0
2.625 0 0
2.4375 0.046875 0
2.625 0.046875 0
2.25 0.046875 0
2.4375 0.046875 0
2.25 0.09375 0
2.4375 0.09375 0
2.4375 0.046875 0
2.625 0.046875 0
2.4375 0.09375 0
2.625 0.09375 0
2.625 0 0
2.8125 0 0
2.625 0.046875 0
2.8125 0.046875 0
2.8125 0 0
3 0 0
2.8125 0.046875 0
3 0.046875 0
2.625 0.046875 0
2.8125 0.046875 0
2.625 0.09375 0
2.8125 0.09375 0
2.8125 0.046875 0
3 0.046875 0
2.8125 0.09375 0
3 0.09375 0
2.25 0.09375 0
2.4375 0.09375 0
2.25 0.140625 0
2.4375 0.140625 0
2.4375 0.09375 0
2.625 0.09375 0
2.4375 0.140625 0
2.625 0.140625 0
2.25 0.140625 0
2.4375 0.140625 0
2.25 0.1875 0
2.4375 0.1875 0
2.4375 0.140625 0
2.625 0.140625 0
2.4375 0.1875 0
2.625 0.1875 0
2.625 0.09375 0
2.8125 0.09375 0
2.625 0.140625 0
2.8125 0.140625 0
2.8125 0.09375 0
3 0.09375 0
2.8125 0.140625 0
3 0.140625 0
2.625 0.140625 0
2.8125 0.140625 0
2.625 0.1875 0
2.8125 0.1875 0
2.8125 0.140625 0
3 0.140625 0
2.8125 0.1875 0
3 0.1875 0
1.5 0.1875 0
1.6875 0.1875 0
1.5 0.234375 0
1.6875 0.234375 0
1.6875 0.1875 0
1.875 0.1875 0
1.6875 0.234375 0
1.875 0.234375 0
1.5 0.234375 0
1.6875 0.234375 0
1.5 0.28125 0
1.6875 0.28125 0
1.6875 0.234375 0
1.875 0.234375 0
1.6875 0.28125 0
1.875 0.28125 0
1.875 0.1875 0
2.0625 0.1875 0
1.875 0.234375 0
2.0625 0.234375 0
2.0625 0.1875 0
2.25 0.1875 0
2.0625 0.234375 0
2.25 0.234375 0
1.875 0.234375 0
2.0625 0.234375 0
1.875 0.28125 0
2.0625 0.28125 0
2.0625 0.234375 0
2.25 0.234375 0
2.0625 0.28125 0
2.25 0.28125 0
1.5 0.28125 0
1.6875 0.28125 0
1.5 0.328125 0
1.6875 0.328125 0
1.6875 0.28125 0
1.875 0.28125 0
1.6875 0.328125 0
1.875 0.328125 0
1.5 0.328125 0
1.6875 0.328125 0
1.5 0.375 0
1.6875 0.375 0
1.6875 0.328125 0
1.875 0.328125 0
1.6875 0.375 0
1.875 0.375 0
1.875 0.28125 0
2.0625 0.28125 0
1.875 0.328125 0
2.0625 0.328125 0
2.0625 0.28125 0
2.25 0.28125 0
2.0625 0.328125 0
2.25 0.328125 0
1.875 0.328125 0
2.0625 0.328125 0
1.875 0.375 0
2.0625 0.375 0
2.0625 0.328125 0
2.25 0.328125 0
2.0625 0.375 0
2.25 0.375 0
2.25 0.1875 0
2.4375 0.1875 0
2.25 0.234375 0
2.4375 0.234375 0
2.4375 0.1875 0
2.625 0.1875 0
2.4375 0.234375 0
2.625 0.234375 0
2.25 0.234375 0
2.4375 0.234375 0
2.25 0.28125 0
2.4375 0.28125 0
2.4375 0.234375 0
2.625 0.234375 0
2.4375 0.28125 0
2.625 0.28125 0
2.625 0.1875 0
2.8125 0.1875 0
2.625 0.234375 0
2.8125 0.234375 0
2.8125 0.1875 0
3 0.1875 0
2.8125 0.234375 0
3 0.234375 0
2.625 0.234375 0
2.8125 0.234375 0
2.625 0.28125 0
2.8125 0.28125 0
2.8125 0.234375 0
3 0.234375 0
2.8125 0.28125 0
3 0.28125 0
2.25 0.28125 0
2.4375 0.28125 0
2.25 0.328125 0
2.4375 0.328125 0
2.4375 0.28125 0
2.625 0.28125 0
2.4375 0.328125 0
2.625 0.328125 0
2.25 0.328125 0
2.4375 0.328125 0
2.25 0.375 0
2.4375 0.375 0
2.4375 0.328125 0
2.625 0.328125 0
2.4375 0.375 0
2.625 0.375 0
2.625 0.28125 0
2.8125 0.28125 0
2.625 0.328125 0
2.8125 0.328125 0
2.8125 0.28125 0
3 0.28125 0
2.8125 0.328125 0
3 0.328125 0
2.625 0.328125 0
2.8125 0.328125 0
2.625 0.375 0
2.8125 0.375 0
2.8125 0.328125 0
3 0.328125 0
2.8125 0.375 0
3 0.375 0
0 0.375 0
0.1875 0.375 0
0 0.421875 0
0.1875 0.421875 0
0.1875 0.375 0
0.375 0.375 0
0.1875 0.421875 0
0.375 0.421875 0
0 0.421875 0
0.1875 0.421875 0
0 0.46875 0
0.1875 0.46875 0
0.1875 0.421875 0
0.375 0.421875 0
0.1875 0.46875 0
0.375 0.46875 0
0.375 0.375 0
0.5625 0.375 0
0.375 0.421875 0
0.5625 0.421875 0
0.5625 0.375 0
0.75 0.375 0
0.5625 0.421875 0
0.75 0.421875 0
0.375 0.421875 0
0.5625 0.421875 0
0.375 0.46875 0
0.5625 0.46875 0
0.5625 0.421875 0
0.75 0.421875 0
0.5625 0.46875 0
0.75 0.46875 0
0 0.46875 0
0.1875 0.46875 0
0 0.515625 0
0.1875 0.515625 0
0.1875 0.46875 0
0.375 0.46875 0
0.1875 0.515625 0
0.375 0.515625 0
0 0.515625 0
0.1875 0.515625 0
0 0.5625 0
0.1875 0.5625 0
0.1875 0.515625 0
0.375 0.515625 0
0.1875 0.5625 0
0.375 0.5625 0
0.375 0.46875 0
0.5625 0.46875 0
0.375 0.515625 0
0.5625 0.515625 0
0.5625 0.46875 0
0.75 0.46875 0
0.5625 0.515625 0
0.75 0.515625 0
0.375 0.515625 0
0.5625 0.515625 0
0.375 0.5625 0
0.5625 0.5625 0
0.5625 0.515625 0
0.75 0.515625 0
0.5625 0.5625 0
0.75 0.5625 0
0.75 0.375 0
0.9375 0.375 0
0.75 0.421875 0
0.9375 0.421875 0
0.9375 0.375 0
1.125 0.375 0
0.9375 0.421875 0
1.125 0.421875 0
0.75 0.421875 0
0.9375 0.421875 0
0.75 0.46875 0
0.9375 0.46875 0
0.9375 0.421875 0
1.125 0.421875 0
0.9375 0.46875 0
1.125 0.46875 0
1.125 0.375 0
1.3125 0.375 0
1.125 0.421875 0
1.3125 0.421875 0
1.3125 0.375 0
1.5 0.375 0
1.3125 0.421875 0
1.5 0.421875 0
1.125 0.421875 0
1.3125 0.421875 0
1.125 0.46875 0
1.3125 0.46875 0
1.3125 0.421875 0
1.5 0.421875 0
1.3125 0.46875 0
1.5 0.46875 0
0.75 0.46875 0
0.9375 0.46875 0
0.75 0.515625 0
0.9375 0.515625 0
0.9375 0.46875 0
1.125 0.46875 0
0.9375 0.515625 0
1.125 0.515625 0
0.75 0.515625 0
0.9375 0.515625 0
[...]
POINT_DATA 16384
SCALARS x_displacement double 1
LOOKUP_TABLE default
0 0.0339771 0 0.0303349 0.0339771 0.0600247 0.0303349 0.0582771 0 0.0303349 0 0.0278385 0.0303349 0.0582771 0.0278385 0.0554394 0.0600247 0.0766003 0.0582771 0.0752165 0.0766003 0.0835365 0.0752165 0.0826518 0.0582771 0.0752165 0.0554394 0.0731565 0.0752165 0.0826518 0.0731565 0.0813332 0 0.0278385 0 0.0257957 0.0278385 0.0554394 0.0257957 0.0518199 0 0.0257957 0 0.0240849 0.0257957 0.0518199 0.0240849 0.0481552 0.0554394 0.0731565 0.0518199 0.0703169 0.0731565 0.0813332 0.0703169 0.0796186 0.0518199 0.0703169 0.0481552 0.0665493 0.0703169 0.0796186 0.0665493 0.0776391 0.0835365 0.0901861 0.0826518 0.0897719 0.0901861 0.0975028 0.0897719 0.0974407 0.0826518 0.0897719 0.0813332 0.0891269 0.0897719 0.0974407 0.0891269 0.0972017 0.0975028 0.105002 0.0974407 0.105097 0.105002 0.112292 0.105097 0.112466 0.0974407 0.105097 0.0972017 0.105067 0.105097 0.112466 0.105067 0.112545 0.0813332 0.0891269 0.0796186 0.0882909 0.0891269 0.0972017 0.0882909 0.0968137 0.0796186 0.0882909 0.0776391 0.0873106 0.0882909 0.0968137 0.0873106 0.0962984 0.0972017 0.105067 0.0968137 0.104924 0.105067 0.112545 0.104924 0.112536 0.0968137 0.104924 0.0962984 0.10468 0.104924 0.112536 0.10468 0.112447 0 0.0240849 0 0.02264 0.0240849 0.0481552 0.02264 0.0447335 0 0.02264 0 0.0213728 0.02264 0.0447335 0.0213728 0.0420194 0.0481552 0.0665493 0.0447335 0.0627338 0.0665493 0.0776391 0.0627338 0.0756295 0.0447335 0.0627338 0.0420194 0.0596738 0.0627338 0.0756295 0.0596738 0.0736251 0 0.0213728 0 0.020306 0.0213728 0.0420194 0.020306 0.0398651 0 0.020306 0 0.0194278 0.020306 0.0398651 0.0194278 0.0381468 0.0420194 0.0596738 0.0398651 0.0572242 0.0596738 0.0736251 0.0572242 0.0717525 0.0398651 0.0572242 0.0381468 0.0552218 0.0572242 0.0717525 0.0552218 0.0700598 0.0776391 0.0873106 0.0756295 0.0862085 0.0873106 0.0962984 0.0862085 0.0956833 0.0756295 0.0862085 0.0736251 0.0850414 0.0862085 0.0956833 0.0850414 0.0949896 0.0962984 0.10468 0.0956833 0.104348 0.10468 0.112447 0.104348 0.112285 0.0956833 0.104348 0.0949896 0.103944 0.104348 0.112285 0.103944 0.112059 0.0736251 0.0850414 0.0717525 0.0838421 0.0850414 0.0949896 0.0838421 0.0942411 0.0717525 0.0838421 0.0700598 0.0826517 0.0838421 0.0942411 0.0826517 0.0934571 0.0949896 0.103944 0.0942411 0.103479 0.103944 0.112059 0.103479 0.111777 0.0942411 0.103479 0.0934571 0.102968 0.103479 0.111777 0.102968 0.111448 0.112292 0.11919 0.112466 0.119398 0.11919 0.125606 0.119398 0.125818 0.112466 0.119398 0.112545 0.119531 0.119398 0.125818 0.119531 0.12597 0.125606 0.131496 0.125818 0.131693 0.131496 0.136844 0.131693 0.137013 0.125818 0.131693 0.12597 0.131842 0.131693 0.137013 0.131842 0.137144 0.112545 0.119531 0.112536 0.119594 0.119531 0.12597 0.119594 0.126066 0.112536 0.119594 0.112447 0.119592 0.119594 0.126066 0.119592 0.126109 0.12597 0.131842 0.126066 0.131945 0.131842 0.137144 0.131945 0.137238 0.126066 0.131945 0.126109 0.132005 0.131945 0.137238 0.132005 0.137297 0.136844 0.141655 0.137013 0.141789 0.141655 0.145945 0.141789 0.146039 0.137013 0.141789 0.137144 0.141892 0.141789 0.146039 0.141892 0.146108 0.145945 0.149739 0.146039 0.14979 0.149739 0.153068 0.14979 0.153077 0.146039 0.14979 0.146108 0.149823 0.14979 0.153077 0.149823 0.153073 0.137144 0.141892 0.137238 0.141965 0.141892 0.146108 0.141965 0.146154 0.137238 0.141965 0.137297 0.14201 0.141965 0.146154 0.14201 0.146177 0.146108 0.149823 0.146154 0.149838 0.149823 0.153073 0.149838 0.153054 0.146154 0.149838 0.146177 0.149834 0.149838 0.153054 0.149834 0.153021 0.112447 0.119592 0.112285 0.119529 0.119592 0.126109 0.119529 0.126102 0.112285 0.119529 0.112059 0.119412 0.119529 0.126102 0.119412 0.126048 0.126109 0.132005 0.126102 0.132024 0.132005 0.137297 0.132024 0.137321 0.126102 0.132024 0.126048 0.132003 0.132024 0.137321 0.132003 0.137314 0.112059 0.119412 0.111777 0.119246 0.119412 0.126048 0.119246 0.125952 0.111777 0.119246 0.111448 0.119036 0.119246 0.125952 0.119036 0.125817 0.126048 0.132003 0.125952 0.131947 0.132003 0.137314 0.131947 0.137275 0.125952 0.131947 0.125817 0.131857 0.131947 0.137275 0.131857 0.137208 0.137297 0.14201 0.137321 0.142027 0.14201 0.146177 0.142027 0.146177 0.137321 0.142027 0.137314 0.142017 0.142027 0.146177 0.142017 0.146155 0.146177 0.149834 0.146177 0.149812 0.149834 0.153021 0.149812 0.152973 0.146177 0.149812 0.146155 0.149772 0.149812 0.152973 0.149772 0.152911 0.137314 0.142017 0.137275 0.141982 0.142017 0.146155 0.141982 0.146113 0.137275 0.141982 0.137208 0.141922 0.141982 0.146113 0.141922 0.146049 0.146155 0.149772 0.146113 0.149714 0.149772 0.152911 0.149714 0.152834 0.146113 0.149714 0.146049 0.14964 0.149714 0.152834 0.14964 0.152744 0 0.0194278 0 0.0187127 0.0194278 0.0381468 0.0187127 0.0367672 0 0.0187127 0 0.0181327 0.0187127 0.0367672 0.0181327 0.035652 0.0381468 0.0552218 0.0367672 0.0535649 0.0552218 0.0700598 0.0535649 0.0685508 0.0367672 0.0535649 0.035652 0.0521825 0.0535649 0.0685508 0.0521825 0.0672141 0 0.0181327 0 0.0176617 0.0181327 0.035652 0.0176617 0.0347444 0 0.0176617 0 0.0172779 0.0176617 0.0347444 0.0172779 0.0340006 0.035652 0.0521825 0.0347444 0.0510218 0.0521825 0.0672141 0.0510218 0.0660335 0.0347444 0.0510218 0.0340006 0.0500416 0.0510218 0.0660335 0.0500416 0.0649919 0.0700598 0.0826517 0.0685508 0.0815021 0.0826517 0.0934571 0.0815021 0.0926556 0.0685508 0.0815021 0.0672141 0.0804128 0.0815021 0.0926556 0.0804128 0.0918534 0.0934571 0.102968 0.0926556 0.102422 0.102968 0.111448 0.102422 0.11108 0.0926556 0.102422 0.0918534 0.101853 0.102422 0.11108 0.101853 0.11068 0.0672141 0.0804128 0.0660335 0.0793941 0.0804128 0.0918534 0.0793941 0.0910637 0.0660335 0.0793941 0.0649919 0.0784497 0.0793941 0.0910637 0.0784497 0.0902966 0.0918534 0.101853 0.0910637 0.10127 0.101853 0.11068 0.10127 0.110255 0.0910637 0.10127 0.0902966 0.100681 0.10127 0.110255 0.100681 0.109813 0 0.0172779 0 0.0169634 0.0172779 0.0340006 0.0169634 0.0333867 0 0.0169634 0 0.016704 0.0169634 0.0333867 0.016704 0.0328762 0.0340006 0.0500416 0.0333867 0.0492096 0.0500416 0.0649919 0.0492096 0.0640728 0.0333867 0.0492096 0.0328762 0.0484996 0.0492096 0.0640728 0.0484996 0.063261 0 0.016704 0 0.0164884 0.016704 0.0328762 0.0164884 0.0324487 0 0.0164884 0 0.0163077 0.0164884 0.0324487 0.0163077 0.0320877 0.0328762 0.0484996 0.0324487 0.0478904 0.0484996 0.063261 0.0478904 0.0625427 0.0324487 0.0478904 0.0320877 0.0473651 0.0478904 0.0625427 0.0473651 0.0619058 0.0649919 0.0784497 0.0640728 0.0775792 0.0784497 0.0902966 0.0775792 0.0895592 0.0640728 0.0775792 0.063261 0.0767802 0.0775792 0.0895592 0.0767802 0.0888557 0.0902966 0.100681 0.0895592 0.100094 0.100681 0.109813 0.100094 0.109359 0.0895592 0.100094 0.0888557 0.0995155 0.100094 0.109359 0.0995155 0.108897 0.063261 0.0767802 0.0625427 0.0760484 0.0767802 0.0888557 0.0760484 0.0881888 0.0625427 0.0760484 0.0619058 0.0753793 0.0760484 0.0881888 0.0753793 0.0875593 0.0888557 0.0995155 0.0881888 0.0989492 0.0995155 0.108897 0.0989492 0.108433 0.0881888 0.0989492 0.0875593 0.0983988 0.0989492 0.108433 0.0983988 0.107971 0.111448 0.119036 0.11108 0.118787 0.119036 0.125817 0.118787 0.125647 0.11108 0.118787 0.11068 0.118506 0.118787 0.125647 0.118506 0.125446 0.125817 0.131857 0.125647 0.131735 0.131857 0.137208 0.131735 0.137113 0.125647 0.131735 0.125446 0.131585 0.131735 0.137113 0.131585 0.136993 0.11068 0.118506 0.110255 0.118197 0.118506 0.125446 0.118197 0.125217 0.110255 0.118197 0.109813 0.117865 0.118197 0.125217 0.117865 0.124964 0.125446 0.131585 0.125217 0.131409 0.131585 0.136993 0.131409 0.13685 0.125217 0.131409 0.124964 0.13121 0.131409 0.13685 0.13121 0.136685 0.137208 0.141922 0.137113 0.141838 0.141922 0.146049 0.141838 0.145966 0.137113 0.141838 0.136993 0.141733 0.141838 0.145966 0.141733 0.145864 0.146049 0.14964 0.145966 0.149549 0.14964 0.152744 0.149549 0.15264 0.145966 0.149549 0.145864 0.149442 0.149549 0.15264 0.149442 0.152523 0.136993 0.141733 0.13685 0.141607 0.141733 0.145864 0.141607 0.145744 0.13685 0.141607 0.136685 0.141462 0.141607 0.145744 0.141462 0.145606 0.145864 0.149442 0.145744 0.14932 0.149442 0.152523 0.14932 0.152392 0.145744 0.14932 0.145606 0.149182 0.14932 0.152392 0.149182 0.152248 0.109813 0.117865 0.109359 0.117514 0.117865 0.124964 0.117514 0.12469 0.109359 0.117514 0.108897 0.117149 0.117514 0.12469 0.117149 0.124399 0.124964 0.13121 0.12469 0.13099 0.13121 0.136685 0.13099 0.136501 0.12469 0.13099 0.124399 0.130752 0.13099 0.136501 0.130752 0.136298 0.108897 0.117149 0.108433 0.116774 0.117149 0.124399 0.116774 0.124093 0.108433 0.116774 0.107971 0.116391 0.116774 0.124093 0.116391 0.123775 0.124399 0.130752 0.124093 0.130497 0.130752 0.136298 0.130497 0.136079 0.124093 0.130497 0.123775 0.130229 0.130497 0.136079 0.130229 0.135846 0.136685 0.141462 0.136501 0.141298 0.141462 0.145606 0.141298 0.145453 0.136501 0.141298 0.136298 0.141118 0.141298 0.145453 0.141118 0.145284 0.145606 0.149182 0.145453 0.14903 0.149182 0.152248 0.14903 0.152092 0.145453 0.14903 0.145284 0.148865 0.14903 0.152092 0.148865 0.151924 0.136298 0.141118 0.136079 0.140922 0.141118 0.145284 0.140922 0.1451 0.136079 0.140922 0.135846 0.140711 0.140922 0.1451 0.140711 0.144903 0.145284 0.148865 0.1451 0.148686 0.148865 0.151924 0.148686 0.151744 0.1451 0.148686 0.144903 0.148494 0.148686 0.151744 0.148494 0.151552 0.153068 0.155967 0.153077 0.155936 0.155967 0.158474 0.155936 0.158405 0.153077 0.155936 0.153073 0.155894 0.155936 0.158405 0.155894 0.158327 0.158474 0.160626 0.158405 0.160521 0.160626 0.162462 0.160521 0.162324 0.158405 0.160521 0.158327 0.160411 0.160521 0.162324 0.160411 0.162183 0.153073 0.155894 0.153054 0.155842 0.155894 0.158327 0.155842 0.158242 0.153054 0.155842 0.153021 0.155778 0.155842 0.158242 0.155778 0.158148 0.158327 0.160411 0.158242 0.160294 0.160411 0.162183 0.160294 0.162037 0.158242 0.160294 0.158148 0.160172 0.160294 0.162037 0.160172 0.161887 0.162462 0.164017 0.162324 0.16385 0.164017 0.165325 0.16385 0.165132 0.162324 0.16385 0.162183 0.16368 0.16385 0.165132 0.16368 0.164937 0.165325 0.166419 0.165132 0.166202 0.166419 0.167328 0.166202 0.167091 0.165132 0.166202 0.164937 0.165986 0.166202 0.167091 0.165986 0.166855 0.162183 0.16368 0.162037 0.163508 0.16368 0.164937 0.163508 0.164741 0.162037 0.163508 0.161887 0.163333 0.163508 0.164741 0.163333 0.164543 0.164937 0.165986 0.164741 0.165768 0.165986 0.166855 0.165768 0.166618 0.164741 0.165768 0.164543 0.165549 0.165768 0.166618 0.165549 0.166381 0.153021 0.155778 0.152973 0.155703 0.155778 0.158148 0.155703 0.158046 0.152973 0.155703 0.152911 0.155617 0.155703 0.158046 0.155617 0.157934 0.158148 0.160172 0.158046 0.160042 0.160172 0.161887 0.160042 0.161732 0.158046 0.160042 0.157934 0.159906 0.160042 0.161732 0.159906 0.161572 0.152911 0.155617 0.152834 0.155519 0.155617 0.157934 0.155519 0.157814 0.152834 0.155519 0.152744 0.15541 0.155519 0.157814 0.15541 0.157684 0.157934 0.159906 0.157814 0.159763 0.159906 0.161572 0.159763 0.161407 0.157814 0.159763 0.157684 0.159612 0.159763 0.161407 0.159612 0.161236 0.161887 0.163333 0.161732 0.163154 0.163333 0.164543 0.163154 0.164342 0.161732 0.163154 0.161572 0.162971 0.163154 0.164342 0.162971 0.164139 0.164543 0.165549 0.164342 0.165329 0.165549 0.166381 0.165329 0.166143 0.164342 0.165329 0.164139 0.165106 0.165329 0.166143 0.165106 0.165904 0.161572 0.162971 0.161407 0.162785 0.162971 0.164139 0.162785 0.163932 0.161407 0.162785 0.161236 0.162594 0.162785 0.163932 0.162594 0.163723 0.164139 0.165106 0.163932 0.164882 0.165106 0.165904 0.164882 0.165663 0.163932 0.164882 0.163723 0.164655 0.164882 0.165663 0.164655 0.16542 0.167328 0.168078 0.167091 0.167824 0.168078 0.168694 0.167824 0.168425 0.167091 0.167824 0.166855 0.167571 0.167824 0.168425 0.167571 0.168157 0.168694 0.169196 0.168425 0.168914 0.169196 0.169603 0.168914 0.169311 0.168425 0.168914 0.168157 0.168634 0.168914 0.169311 0.168634 0.16902 0.166855 0.167571 0.166618 0.167317 0.167571 0.168157 0.167317 0.167889 0.166618 0.167317 0.166381 0.167064 0.167317 0.167889 0.167064 0.167622 0.168157 0.168634 0.167889 0.168354 0.168634 0.16902 0.168354 0.168729 0.167889 0.168354 0.167622 0.168075 0.168354 0.168729 0.168075 0.16844 0.169603 0.169931 0.169311 0.16963 0.169931 0.170194 0.16963 0.169885 0.169311 0.16963 0.16902 0.16933 0.16963 0.169885 0.16933 0.169578 0.170194 0.170403 0.169885 0.170088 0.170403 0.170568 0.170088 0.170249 0.169885 0.170088 0.169578 0.169775 0.170088 0.170249 0.169775 0.169931 0.16902 0.16933 0.168729 0.169031 0.16933 0.169578 0.169031 0.169272 0.168729 0.169031 0.16844 0.168733 0.169031 0.169272 0.168733 0.168966 0.169578 0.169775 0.169272 0.169463 0.169775 0.169931 0.169463 0.169614 0.169272 0.169463 0.168966 0.169151 0.169463 0.169614 0.169151 0.169297 0.166381 0.167064 0.166143 0.16681 0.167064 0.167622 0.16681 0.167355 0.166143 0.16681 0.165904 0.166556 0.16681 0.167355 0.166556 0.167087 0.167622 0.168075 0.167355 0.167795 0.168075 0.16844 0.167795 0.168151 0.167355 0.167795 0.167087 0.167516 0.167795 0.168151 0.167516 0.167862 0.165904 0.166556 0.165663 0.166301 0.166556 0.167087 0.166301 0.166819 0.165663 0.166301 0.16542 0.166045 0.166301 0.166819 0.166045 0.16655 0.167087 0.167516 0.166819 0.167237 0.167516 0.167862 0.167237 0.167573 0.166819 0.167237 0.16655 0.166958 0.167237 0.167573 0.166958 0.167284 0.16844 0.168733 0.168151 0.168435 0.168733 0.168966 0.168435 0.168661 0.168151 0.168435 0.167862 0.168137 0.168435 0.168661 0.168137 0.168357 0.168966 0.169151 0.168661 0.16884 0.169151 0.169297 0.16884 0.168981 0.168661 0.16884 0.168357 0.16853 0.16884 0.168981 0.16853 0.168665 0.167862 0.168137 0.167573 0.16784 0.168137 0.168357 0.16784 0.168052 0.167573 0.16784 0.167284 0.167543 0.16784 0.168052 0.167543 0.167748 0.168357 0.16853 0.168052 0.168219 0.16853 0.168665 0.168219 0.16835 0.168052 0.168219 0.167748 0.167909 0.168219 0.16835 0.167909 0.168035 0.152744 0.15541 0.15264 0.15529 0.15541 0.157684 0.15529 0.157546 0.15264 0.15529 0.152523 0.155158 0.15529 0.157546 0.155158 0.157397 0.157684 0.159612 0.157546 0.159454 0.159612 0.161236 0.159454 0.161058 0.157546 0.159454 0.157397 0.159289 0.159454 0.161058 0.159289 0.160875 0.152523 0.155158 0.152392 0.155015 0.155158 0.157397 0.155015 0.15724 0.152392 0.155015 0.152248 0.154861 0.155015 0.15724 0.154861 0.157073 0.157397 0.159289 0.15724 0.159115 0.159289 0.160875 0.159115 0.160686 0.15724 0.159115 0.157073 0.158934 0.159115 0.160686 0.158934 0.16049 0.161236 0.162594 0.161058 0.162398 0.162594 0.163723 0.162398 0.163509 0.161058 0.162398 0.160875 0.162197 0.162398 0.163509 0.162197 0.163292 0.163723 0.164655 0.163509 0.164426 0.164655 0.16542 0.164426 0.165176 0.163509 0.164426 0.163292 0.164193 0.164426 0.165176 0.164193 0.164929 0.160875 0.162197 0.160686 0.161992 0.162197 0.163292 0.161992 0.163071 0.160686 0.161992 0.16049 0.161781 0.161992 0.163071 0.161781 0.162846 0.163292 0.164193 0.163071 0.163957 0.164193 0.164929 0.163957 0.16468 0.163071 0.163957 0.162846 0.163718 0.163957 0.16468 0.163718 0.164428 0.152248 0.154861 0.152092 0.154696 0.154861 0.157073 0.154696 0.156897 0.152092 0.154696 0.151924 0.154521 0.154696 0.156897 0.154521 0.156712 0.157073 0.158934 0.156897 0.158746 0.158934 0.16049 0.158746 0.160287 0.156897 0.158746 0.156712 0.158549 0.158746 0.160287 0.158549 0.160078 0.151924 0.154521 0.151744 0.154336 0.154521 0.156712 0.154336 0.156518 0.151744 0.154336 0.151552 0.15414 0.154336 0.156518 0.15414 0.156315 0.156712 0.158549 0.156518 0.158345 0.158549 0.160078 0.158345 0.159862 0.156518 0.158345 0.156315 0.158132 0.158345 0.159862 0.158132 0.15964 0.16049 0.161781 0.160287 0.161564 0.161781 0.162846 0.161564 0.162616 0.160287 0.161564 0.160078 0.161343 0.161564 0.162616 0.161343 0.162381 0.162846 0.163718 0.162616 0.163475 0.163718 0.164428 0.163475 0.164173 0.162616 0.163475 0.162381 0.163229 0.163475 0.164173 0.163229 0.163915 0.160078 0.161343 0.159862 0.161115 0.161343 0.162381 0.161115 0.162142 0.159862 0.161115 0.15964 0.160882 0.161115 0.162142 0.160882 0.161898 0.162381 0.163229 0.162142 0.162978 0.163229 0.163915 0.162978 0.163654 0.162142 0.162978 0.161898 0.162723 0.162978 0.163654 0.162723 0.163389 0.16542 0.166045 0.165176 0.165787 0.166045 0.16655 0.165787 0.16628 0.165176 0.165787 0.164929 0.165527 0.165787 0.16628 0.165527 0.166009 0.16655 0.166958 0.16628 0.166677 0.166958 0.167284 0.166677 0.166994 0.16628 0.166677 0.166009 0.166396 0.166677 0.166994 0.166396 0.166704 0.164929 0.165527 0.16468 0.165266 0.165527 0.166009 0.165266 0.165737 0.16468 0.165266 0.164428 0.165002 0.165266 0.165737 0.165002 0.165463 0.166009 0.166396 0.165737 0.166114 0.166396 0.166704 0.166114 0.166413 0.165737 0.166114 0.165463 0.16583 0.166114 0.166413 0.16583 0.166121 0.167284 0.167543 0.166994 0.167245 0.167543 0.167748 0.167245 0.167444 0.166994 0.167245 0.166704 0.166948 0.167245 0.167444 0.166948 0.167139 0.167748 0.167909 0.167444 0.167599 0.167909 0.168035 0.167599 0.167721 0.167444 0.167599 0.167139 0.167289 0.167599 0.167721 0.167289 0.167406 0.166704 0.166948 0.166413 0.166649 0.166948 0.167139 0.166649 0.166835 0.166413 0.166649 0.166121 0.16635 0.166649 0.166835 0.16635 0.166529 0.167139 0.167289 0.166835 0.166979 0.167289 0.167406 0.166979 0.167091 0.166835 0.166979 0.166529 0.166668 0.166979 0.167091 0.166668 0.166776 0.164428 0.165002 0.164173 0.164736 0.165002 0.165463 0.164736 0.165187 0.164173 0.164736 0.163915 0.164467 0.164736 0.165187 0.164467 0.164908 0.165463 0.16583 0.165187 0.165545 0.16583 0.166121 0.165545 0.165828 0.165187 0.165545 0.164908 0.165258 0.165545 0.165828 0.165258 0.165534 0.163915 0.164467 0.163654 0.164196 0.164467 0.164908 0.164196 0.164628 0.163654 0.164196 0.163389 0.163922 0.164196 0.164628 0.163922 0.164346 0.164908 0.165258 0.164628 0.16497 0.165258 0.165534 0.16497 0.165238 0.164628 0.16497 0.164346 0.16468 0.16497 0.165238 0.16468 0.164941 0.166121 0.16635 0.165828 0.16605 0.16635 0.166529 0.16605 0.166223 0.165828 0.16605 0.165534 0.16575 0.16605 0.166223 0.16575 0.165917 0.166529 0.166668 0.166223 0.166357 0.166668 0.166776 0.166357 0.16646 0.166223 0.166357 0.165917 0.166046 0.166357 0.16646 0.166046 0.166144 0.165534 0.16575 0.165238 0.165448 0.16575 0.165917 0.165448 0.165609 0.165238 0.165448 0.164941 0.165144 0.165448 0.165609 0.165144 0.165301 0.165917 0.166046 0.165609 0.165733 0.166046 0.166144 0.165733 0.165828 0.165609 0.165733 0.165301 0.16542 0.165733 0.165828 0.16542 0.165511 0 0.0163077 0 0.016155 0.0163077 0.0320877 0.016155 0.0317804 0 0.016155 0 0.0160248 0.016155 0.0317804 0.0160248 0.0315169 0.0320877 0.0473651 0.0317804 0.0469094 0.0473651 0.0619058 0.0469094 0.0613395 0.0317804 0.0469094 0.0315169 0.0465119 0.0469094 0.0613395 0.0465119 0.0608345 0 0.0160248 0 0.0159128 0.0160248 0.0315169 0.0159128 0.0312888 0 0.0159128 0 0.0158155 0.0159128 0.0312888 0.0158155 0.0310899 0.0315169 0.0465119 0.0312888 0.046163 0.0465119 0.0608345 0.046163 0.0603828 0.0312888 0.046163 0.0310899 0.045855 0.046163 0.0603828 0.045855 0.0599772 0.0619058 0.0753793 0.0613395 0.0747676 0.0753793 0.0875593 0.0747676 0.0869672 0.0613395 0.0747676 0.0608345 0.0742084 0.0747676 0.0869672 0.0742084 0.0864114 0.0875593 0.0983988 0.0869672 0.0978668 0.0983988 0.107971 0.0978668 0.107513 0.0869672 0.0978668 0.0864114 0.0973548 0.0978668 0.107513 0.0973548 0.107062 0.0608345 0.0742084 0.0603828 0.0736968 0.0742084 0.0864114 0.0736968 0.0858907 0.0603828 0.0736968 0.0599772 0.0732283 0.0736968 0.0858907 0.0732283 0.0854033 0.0864114 0.0973548 0.0858907 0.0968636 0.0973548 0.107062 0.0968636 0.10662 0.0858907 0.0968636 0.0854033 0.0963938 0.0968636 0.10662 0.0963938 0.106189 0 0.0158155 0 0.0157302 0.0158155 0.0310899 0.0157302 0.0309149 0 0.0157302 0 0.0156546 0.0157302 0.0309149 0.0156546 0.0307596 0.0310899 0.045855 0.0309149 0.0455815 0.045855 0.0599772 0.0455815 0.0596117 0.0309149 0.0455815 0.0307596 0.0453369 0.0455815 0.0596117 0.0453369 0.059281 0 0.0156546 0 0.0155871 0.0156546 0.0307596 0