# vtk DataFile Version 3.0
#This file was generated by the deal.II library on 2022/1/6 at 22:49:11
ASCII
DATASET UNSTRUCTURED_GRID

POINTS 16384 double
0 0 0
0.1875 0 0
0 0.046875 0
0.1875 0.046875 0
0.1875 0 0
0.375 0 0
0.1875 0.046875 0
0.375 0.046875 0
0 0.046875 0
0.1875 0.046875 0
0 0.09375 0
0.1875 0.09375 0
0.1875 0.046875 0
0.375 0.046875 0
0.1875 0.09375 0
0.375 0.09375 0
0.375 0 0
0.5625 0 0
0.375 0.046875 0
0.5625 0.046875 0
0.5625 0 0
0.75 0 0
0.5625 0.046875 0
0.75 0.046875 0
0.375 0.046875 0
0.5625 0.046875 0
0.375 0.09375 0
0.5625 0.09375 0
0.5625 0.046875 0
0.75 0.046875 0
0.5625 0.09375 0
0.75 0.09375 0
0 0.09375 0
0.1875 0.09375 0
0 0.140625 0
0.1875 0.140625 0
0.1875 0.09375 0
0.375 0.09375 0
0.1875 0.140625 0
0.375 0.140625 0
0 0.140625 0
0.1875 0.140625 0
0 0.1875 0
0.1875 0.1875 0
0.1875 0.140625 0
0.375 0.140625 0
0.1875 0.1875 0
0.375 0.1875 0
0.375 0.09375 0
0.5625 0.09375 0
0.375 0.140625 0
0.5625 0.140625 0
0.5625 0.09375 0
0.75 0.09375 0
0.5625 0.140625 0
0.75 0.140625 0
0.375 0.140625 0
0.5625 0.140625 0
0.375 0.1875 0
0.5625 0.1875 0
0.5625 0.140625 0
0.75 0.140625 0
0.5625 0.1875 0
0.75 0.1875 0
0.75 0 0
0.9375 0 0
0.75 0.046875 0
0.9375 0.046875 0
0.9375 0 0
1.125 0 0
0.9375 0.046875 0
1.125 0.046875 0
0.75 0.046875 0
0.9375 0.046875 0
0.75 0.09375 0
0.9375 0.09375 0
0.9375 0.046875 0
1.125 0.046875 0
0.9375 0.09375 0
1.125 0.09375 0
1.125 0 0
1.3125 0 0
1.125 0.046875 0
1.3125 0.046875 0
1.3125 0 0
1.5 0 0
1.3125 0.046875 0
1.5 0.046875 0
1.125 0.046875 0
1.3125 0.046875 0
1.125 0.09375 0
1.3125 0.09375 0
1.3125 0.046875 0
1.5 0.046875 0
1.3125 0.09375 0
1.5 0.09375 0
0.75 0.09375 0
0.9375 0.09375 0
0.75 0.140625 0
0.9375 0.140625 0
0.9375 0.09375 0
1.125 0.09375 0
0.9375 0.140625 0
1.125 0.140625 0
0.75 0.140625 0
0.9375 0.140625 0
0.75 0.1875 0
0.9375 0.1875 0
0.9375 0.140625 0
1.125 0.140625 0
0.9375 0.1875 0
1.125 0.1875 0
1.125 0.09375 0
1.3125 0.09375 0
1.125 0.140625 0
1.3125 0.140625 0
1.3125 0.09375 0
1.5 0.09375 0
1.3125 0.140625 0
1.5 0.140625 0
1.125 0.140625 0
1.3125 0.140625 0
1.125 0.1875 0
1.3125 0.1875 0
1.3125 0.140625 0
1.5 0.140625 0
1.3125 0.1875 0
1.5 0.1875 0
0 0.1875 0
0.1875 0.1875 0
0 0.234375 0
0.1875 0.234375 0
0.1875 0.1875 0
0.375 0.1875 0
0.1875 0.234375 0
0.375 0.234375 0
0 0.234375 0
0.1875 0.234375 0
0 0.28125 0
0.1875 0.28125 0
0.1875 0.234375 0
0.375 0.234375 0
0.1875 0.28125 0
0.375 0.28125 0
0.375 0.1875 0
0.5625 0.1875 0
0.375 0.234375 0
0.5625 0.234375 0
0.5625 0.1875 0
0.75 0.1875 0
0.5625 0.234375 0
0.75 0.234375 0
0.375 0.234375 0
0.5625 0.234375 0
0.375 0.28125 0
0.5625 0.28125 0
0.5625 0.234375 0
0.75 0.234375 0
0.5625 0.28125 0
0.75 0.28125 0
0 0.28125 0
0.1875 0.28125 0
0 0.328125 0
0.1875 0.328125 0
0.1875 0.28125 0
0.375 0.28125 0
0.1875 0.328125 0
0.375 0.328125 0
0 0.328125 0
0.1875 0.328125 0
0 0.375 0
0.1875 0.375 0
0.1875 0.328125 0
0.375 0.328125 0
0.1875 0.375 0
0.375 0.375 0
0.375 0.28125 0
0.5625 0.28125 0
0.375 0.328125 0
0.5625 0.328125 0
0.5625 0.28125 0
0.75 0.28125 0
0.5625 0.328125 0
0.75 0.328125 0
0.375 0.328125 0
0.5625 0.328125 0
0.375 0.375 0
0.5625 0.375 0
0.5625 0.328125 0
0.75 0.328125 0
0.5625 0.375 0
0.75 0.375 0
0.75 0.1875 0
0.9375 0.1875 0
0.75 0.234375 0
0.9375 0.234375 0
0.9375 0.1875 0
1.125 0.1875 0
0.9375 0.234375 0
1.125 0.234375 0
0.75 0.234375 0
0.9375 0.234375 0
0.75 0.28125 0
0.9375 0.28125 0
0.9375 0.234375 0
1.125 0.234375 0
0.9375 0.28125 0
1.125 0.28125 0
1.125 0.1875 0
1.3125 0.1875 0
1.125 0.234375 0
1.3125 0.234375 0
1.3125 0.1875 0
1.5 0.1875 0
1.3125 0.234375 0
1.5 0.234375 0
1.125 0.234375 0
1.3125 0.234375 0
1.125 0.28125 0
1.3125 0.28125 0
1.3125 0.234375 0
1.5 0.234375 0
1.3125 0.28125 0
1.5 0.28125 0
0.75 0.28125 0
0.9375 0.28125 0
0.75 0.328125 0
0.9375 0.328125 0
0.9375 0.28125 0
1.125 0.28125 0
0.9375 0.328125 0
1.125 0.328125 0
0.75 0.328125 0
0.9375 0.328125 0
0.75 0.375 0
0.9375 0.375 0
0.9375 0.328125 0
1.125 0.328125 0
0.9375 0.375 0
1.125 0.375 0
1.125 0.28125 0
1.3125 0.28125 0
1.125 0.328125 0
1.3125 0.328125 0
1.3125 0.28125 0
1.5 0.28125 0
1.3125 0.328125 0
1.5 0.328125 0
1.125 0.328125 0
1.3125 0.328125 0
1.125 0.375 0
1.3125 0.375 0
1.3125 0.328125 0
1.5 0.328125 0
1.3125 0.375 0
1.5 0.375 0
1.5 0 0
1.6875 0 0
1.5 0.046875 0
1.6875 0.046875 0
1.6875 0 0
1.875 0 0
1.6875 0.046875 0
1.875 0.046875 0
1.5 0.046875 0
1.6875 0.046875 0
1.5 0.09375 0
1.6875 0.09375 0
1.6875 0.046875 0
1.875 0.046875 0
1.6875 0.09375 0
1.875 0.09375 0
1.875 0 0
2.0625 0 0
1.875 0.046875 0
2.0625 0.046875 0
2.0625 0 0
2.25 0 0
2.0625 0.046875 0
2.25 0.046875 0
1.875 0.046875 0
2.0625 0.046875 0
1.875 0.09375 0
2.0625 0.09375 0
2.0625 0.046875 0
2.25 0.046875 0
2.0625 0.09375 0
2.25 0.09375 0
1.5 0.09375 0
1.6875 0.09375 0
1.5 0.140625 0
1.6875 0.140625 0
1.6875 0.09375 0
1.875 0.09375 0
1.6875 0.140625 0
1.875 0.140625 0
1.5 0.140625 0
1.6875 0.140625 0
1.5 0.1875 0
1.6875 0.1875 0
1.6875 0.140625 0
1.875 0.140625 0
1.6875 0.1875 0
1.875 0.1875 0
1.875 0.09375 0
2.0625 0.09375 0
1.875 0.140625 0
2.0625 0.140625 0
2.0625 0.09375 0
2.25 0.09375 0
2.0625 0.140625 0
2.25 0.140625 0
1.875 0.140625 0
2.0625 0.140625 0
1.875 0.1875 0
2.0625 0.1875 0
2.0625 0.140625 0
2.25 0.140625 0
2.0625 0.1875 0
2.25 0.1875 0
2.25 0 0
2.4375 0 0
2.25 0.046875 0
2.4375 0.046875 0
2.4375 0 0
2.625 0 0
2.4375 0.046875 0
2.625 0.046875 0
2.25 0.046875 0
2.4375 0.046875 0
2.25 0.09375 0
2.4375 0.09375 0
2.4375 0.046875 0
2.625 0.046875 0
2.4375 0.09375 0
2.625 0.09375 0
2.625 0 0
2.8125 0 0
2.625 0.046875 0
2.8125 0.046875 0
2.8125 0 0
3 0 0
2.8125 0.046875 0
3 0.046875 0
2.625 0.046875 0
2.8125 0.046875 0
2.625 0.09375 0
2.8125 0.09375 0
2.8125 0.046875 0
3 0.046875 0
2.8125 0.09375 0
3 0.09375 0
2.25 0.09375 0
2.4375 0.09375 0
2.25 0.140625 0
2.4375 0.140625 0
2.4375 0.09375 0
2.625 0.09375 0
2.4375 0.140625 0
2.625 0.140625 0
2.25 0.140625 0
2.4375 0.140625 0
2.25 0.1875 0
2.4375 0.1875 0
2.4375 0.140625 0
2.625 0.140625 0
2.4375 0.1875 0
2.625 0.1875 0
2.625 0.09375 0
2.8125 0.09375 0
2.625 0.140625 0
2.8125 0.140625 0
2.8125 0.09375 0
3 0.09375 0
2.8125 0.140625 0
3 0.140625 0
2.625 0.140625 0
2.8125 0.140625 0
2.625 0.1875 0
2.8125 0.1875 0
2.8125 0.140625 0
3 0.140625 0
2.8125 0.1875 0
3 0.1875 0
1.5 0.1875 0
1.6875 0.1875 0
1.5 0.234375 0
1.6875 0.234375 0
1.6875 0.1875 0
1.875 0.1875 0
1.6875 0.234375 0
1.875 0.234375 0
1.5 0.234375 0
1.6875 0.234375 0
1.5 0.28125 0
1.6875 0.28125 0
1.6875 0.234375 0
1.875 0.234375 0
1.6875 0.28125 0
1.875 0.28125 0
1.875 0.1875 0
2.0625 0.1875 0
1.875 0.234375 0
2.0625 0.234375 0
2.0625 0.1875 0
2.25 0.1875 0
2.0625 0.234375 0
2.25 0.234375 0
1.875 0.234375 0
2.0625 0.234375 0
1.875 0.28125 0
2.0625 0.28125 0
2.0625 0.234375 0
2.25 0.234375 0
2.0625 0.28125 0
2.25 0.28125 0
1.5 0.28125 0
1.6875 0.28125 0
1.5 0.328125 0
1.6875 0.328125 0
1.6875 0.28125 0
1.875 0.28125 0
1.6875 0.328125 0
1.875 0.328125 0
1.5 0.328125 0
1.6875 0.328125 0
1.5 0.375 0
1.6875 0.375 0
1.6875 0.328125 0
1.875 0.328125 0
1.6875 0.375 0
1.875 0.375 0
1.875 0.28125 0
2.0625 0.28125 0
1.875 0.328125 0
2.0625 0.328125 0
2.0625 0.28125 0
2.25 0.28125 0
2.0625 0.328125 0
2.25 0.328125 0
1.875 0.328125 0
2.0625 0.328125 0
1.875 0.375 0
2.0625 0.375 0
2.0625 0.328125 0
2.25 0.328125 0
2.0625 0.375 0
2.25 0.375 0
2.25 0.1875 0
2.4375 0.1875 0
2.25 0.234375 0
2.4375 0.234375 0
2.4375 0.1875 0
2.625 0.1875 0
2.4375 0.234375 0
2.625 0.234375 0
2.25 0.234375 0
2.4375 0.234375 0
2.25 0.28125 0
2.4375 0.28125 0
2.4375 0.234375 0
2.625 0.234375 0
2.4375 0.28125 0
2.625 0.28125 0
2.625 0.1875 0
2.8125 0.1875 0
2.625 0.234375 0
2.8125 0.234375 0
2.8125 0.1875 0
3 0.1875 0
2.8125 0.234375 0
3 0.234375 0
2.625 0.234375 0
2.8125 0.234375 0
2.625 0.28125 0
2.8125 0.28125 0
2.8125 0.234375 0
3 0.234375 0
2.8125 0.28125 0
3 0.28125 0
2.25 0.28125 0
2.4375 0.28125 0
2.25 0.328125 0
2.4375 0.328125 0
2.4375 0.28125 0
2.625 0.28125 0
2.4375 0.328125 0
2.625 0.328125 0
2.25 0.328125 0
2.4375 0.328125 0
2.25 0.375 0
2.4375 0.375 0
2.4375 0.328125 0
2.625 0.328125 0
2.4375 0.375 0
2.625 0.375 0
2.625 0.28125 0
2.8125 0.28125 0
2.625 0.328125 0
2.8125 0.328125 0
2.8125 0.28125 0
3 0.28125 0
2.8125 0.328125 0
3 0.328125 0
2.625 0.328125 0
2.8125 0.328125 0
2.625 0.375 0
2.8125 0.375 0
2.8125 0.328125 0
3 0.328125 0
2.8125 0.375 0
3 0.375 0
0 0.375 0
0.1875 0.375 0
0 0.421875 0
0.1875 0.421875 0
0.1875 0.375 0
0.375 0.375 0
0.1875 0.421875 0
0.375 0.421875 0
0 0.421875 0
0.1875 0.421875 0
0 0.46875 0
0.1875 0.46875 0
0.1875 0.421875 0
0.375 0.421875 0
0.1875 0.46875 0
0.375 0.46875 0
0.375 0.375 0
0.5625 0.375 0
0.375 0.421875 0
0.5625 0.421875 0
0.5625 0.375 0
0.75 0.375 0
0.5625 0.421875 0
0.75 0.421875 0
0.375 0.421875 0
0.5625 0.421875 0
0.375 0.46875 0
0.5625 0.46875 0
0.5625 0.421875 0
0.75 0.421875 0
0.5625 0.46875 0
0.75 0.46875 0
0 0.46875 0
0.1875 0.46875 0
0 0.515625 0
0.1875 0.515625 0
0.1875 0.46875 0
0.375 0.46875 0
0.1875 0.515625 0
0.375 0.515625 0
0 0.515625 0
0.1875 0.515625 0
0 0.5625 0
0.1875 0.5625 0
0.1875 0.515625 0
0.375 0.515625 0
0.1875 0.5625 0
0.375 0.5625 0
0.375 0.46875 0
0.5625 0.46875 0
0.375 0.515625 0
0.5625 0.515625 0
0.5625 0.46875 0
0.75 0.46875 0
0.5625 0.515625 0
0.75 0.515625 0
0.375 0.515625 0
0.5625 0.515625 0
0.375 0.5625 0
0.5625 0.5625 0
0.5625 0.515625 0
0.75 0.515625 0
0.5625 0.5625 0
0.75 0.5625 0
0.75 0.375 0
0.9375 0.375 0
0.75 0.421875 0
0.9375 0.421875 0
0.9375 0.375 0
1.125 0.375 0
0.9375 0.421875 0
1.125 0.421875 0
0.75 0.421875 0
0.9375 0.421875 0
0.75 0.46875 0
0.9375 0.46875 0
0.9375 0.421875 0
1.125 0.421875 0
0.9375 0.46875 0
1.125 0.46875 0
1.125 0.375 0
1.3125 0.375 0
1.125 0.421875 0
1.3125 0.421875 0
1.3125 0.375 0
1.5 0.375 0
1.3125 0.421875 0
1.5 0.421875 0
1.125 0.421875 0
1.3125 0.421875 0
1.125 0.46875 0
1.3125 0.46875 0
1.3125 0.421875 0
1.5 0.421875 0
1.3125 0.46875 0
1.5 0.46875 0
0.75 0.46875 0
0.9375 0.46875 0
0.75 0.515625 0
0.9375 0.515625 0
0.9375 0.46875 0
1.125 0.46875 0
0.9375 0.515625 0
1.125 0.515625 0
0.75 0.515625 0
0.9375 0.515625 0
[...]
POINT_DATA 16384
SCALARS x_displacement double 1
LOOKUP_TABLE default
0 0.0329432 0 0.0295369 0.0329432 0.0579672 0.0295369 0.0564474 0 0.0295369 0 0.0271956 0.0295369 0.0564474 0.0271956 0.053811 0.0579672 0.0732853 0.0564474 0.0721314 0.0732853 0.078717 0.0721314 0.0780451 0.0564474 0.0721314 0.053811 0.0702727 0.0721314 0.0780451 0.0702727 0.0769183 0 0.0271956 0 0.0252631 0.0271956 0.053811 0.0252631 0.0503593 0 0.0252631 0 0.023635 0.0252631 0.0503593 0.023635 0.0468326 0.053811 0.0702727 0.0503593 0.0676107 0.0702727 0.0769183 0.0676107 0.0753752 0.0503593 0.0676107 0.0468326 0.0639983 0.0676107 0.0753752 0.0639983 0.0735487 0.078717 0.0836231 0.0780451 0.0833961 0.0836231 0.0889839 0.0833961 0.0890769 0.0780451 0.0833961 0.0769183 0.0829217 0.0833961 0.0890769 0.0829217 0.0889809 0.0889839 0.0943521 0.0890769 0.094566 0.0943521 0.099378 0.094566 0.0996336 0.0890769 0.094566 0.0889809 0.0946477 0.094566 0.0996336 0.0946477 0.0997901 0.0769183 0.0829217 0.0753752 0.0822407 0.0829217 0.0889809 0.0822407 0.0887243 0.0753752 0.0822407 0.0735487 0.0814007 0.0822407 0.0887243 0.0814007 0.0883292 0.0889809 0.0946477 0.0887243 0.0946072 0.0946477 0.0997901 0.0946072 0.0998545 0.0887243 0.0946072 0.0883292 0.0944588 0.0946072 0.0998545 0.0944588 0.099834 0 0.023635 0 0.0222541 0.023635 0.0468326 0.0222541 0.0435242 0 0.0222541 0 0.0210377 0.0222541 0.0435242 0.0210377 0.0409035 0.0468326 0.0639983 0.0435242 0.0603171 0.0639983 0.0735487 0.0603171 0.0716749 0.0435242 0.0603171 0.0409035 0.0573728 0.0603171 0.0716749 0.0573728 0.0697907 0 0.0210377 0 0.020012 0.0210377 0.0409035 0.020012 0.0388265 0 0.020012 0 0.0191675 0.020012 0.0388265 0.0191675 0.0371725 0.0409035 0.0573728 0.0388265 0.0550225 0.0573728 0.0697907 0.0550225 0.068024 0.0388265 0.0550225 0.0371725 0.053105 0.0550225 0.068024 0.053105 0.0664243 0.0735487 0.0814007 0.0716749 0.0804251 0.0814007 0.0883292 0.0804251 0.087824 0.0716749 0.0804251 0.0697907 0.0793717 0.0804251 0.087824 0.0793717 0.0872302 0.0883292 0.0944588 0.087824 0.094216 0.0944588 0.099834 0.094216 0.0997366 0.087824 0.094216 0.0872302 0.0938931 0.094216 0.0997366 0.0938931 0.0995708 0.0697907 0.0793717 0.068024 0.0782743 0.0793717 0.0872302 0.0782743 0.0865726 0.068024 0.0782743 0.0664243 0.0771748 0.0782743 0.0865726 0.0771748 0.0858707 0.0872302 0.0938931 0.0865726 0.0935035 0.0938931 0.0995708 0.0935035 0.0993453 0.0865726 0.0935035 0.0858707 0.093061 0.0935035 0.0993453 0.093061 0.0990683 0.099378 0.103926 0.0996336 0.104178 0.103926 0.107951 0.104178 0.108173 0.0996336 0.104178 0.0997901 0.104355 0.104178 0.108173 0.104355 0.108336 0.107951 0.111454 0.108173 0.111628 0.111454 0.114461 0.111628 0.114579 0.108173 0.111628 0.108336 0.111759 0.111628 0.114579 0.111759 0.114665 0.0997901 0.104355 0.0998545 0.10446 0.104355 0.108336 0.10446 0.108445 0.0998545 0.10446 0.099834 0.104499 0.10446 0.108445 0.104499 0.108502 0.108336 0.111759 0.108445 0.111848 0.111759 0.114665 0.111848 0.114721 0.108445 0.111848 0.108502 0.111897 0.111848 0.114721 0.111897 0.114745 0.114461 0.117009 0.114579 0.117068 0.117009 0.119144 0.117068 0.119145 0.114579 0.117068 0.114665 0.117105 0.117068 0.119145 0.117105 0.119131 0.119144 0.120915 0.119145 0.120861 0.120915 0.12237 0.120861 0.122265 0.119145 0.120861 0.119131 0.120797 0.120861 0.122265 0.120797 0.122155 0.114665 0.117105 0.114721 0.117119 0.117105 0.119131 0.117119 0.119101 0.114721 0.117119 0.114745 0.11711 0.117119 0.119101 0.11711 0.119055 0.119131 0.120797 0.119101 0.120723 0.120797 0.122155 0.120723 0.122039 0.119101 0.120723 0.119055 0.120638 0.120723 0.122039 0.120638 0.121917 0.099834 0.104499 0.0997366 0.104476 0.104499 0.108502 0.104476 0.108509 0.0997366 0.104476 0.0995708 0.104397 0.104476 0.108509 0.104397 0.108471 0.108502 0.111897 0.108509 0.111907 0.111897 0.114745 0.111907 0.11474 0.108509 0.111907 0.108471 0.111881 0.111907 0.11474 0.111881 0.114707 0.0995708 0.104397 0.0993453 0.104267 0.104397 0.108471 0.104267 0.108391 0.0993453 0.104267 0.0990683 0.10409 0.104267 0.108391 0.10409 0.108271 0.108471 0.111881 0.108391 0.11182 0.111881 0.114707 0.11182 0.114646 0.108391 0.11182 0.108271 0.111727 0.11182 0.114646 0.111727 0.11456 0.114745 0.11711 0.11474 0.11708 0.11711 0.119055 0.11708 0.118992 0.11474 0.11708 0.114707 0.117027 0.11708 0.118992 0.117027 0.118914 0.119055 0.120638 0.118992 0.120542 0.120638 0.121917 0.120542 0.121786 0.118992 0.120542 0.118914 0.120435 0.120542 0.121786 0.120435 0.121649 0.114707 0.117027 0.114646 0.116954 0.117027 0.118914 0.116954 0.11882 0.114646 0.116954 0.11456 0.11686 0.116954 0.11882 0.11686 0.11871 0.118914 0.120435 0.11882 0.120315 0.120435 0.121649 0.120315 0.121503 0.11882 0.120315 0.11871 0.120185 0.120315 0.121503 0.120185 0.121349 0 0.0191675 0 0.0184802 0.0191675 0.0371725 0.0184802 0.0358468 0 0.0184802 0 0.0179233 0.0184802 0.0358468 0.0179233 0.0347767 0.0371725 0.053105 0.0358468 0.0515208 0.053105 0.0664243 0.0515208 0.0649965 0.0358468 0.0515208 0.0347767 0.0502006 0.0515208 0.0649965 0.0502006 0.0637308 0 0.0179233 0 0.0174718 0.0179233 0.0347767 0.0174718 0.0339071 0 0.0174718 0 0.0171044 0.0174718 0.0339071 0.0171044 0.0331953 0.0347767 0.0502006 0.0339071 0.049093 0.0502006 0.0637308 0.049093 0.062612 0.0339071 0.049093 0.0331953 0.0481582 0.049093 0.062612 0.0481582 0.0616241 0.0664243 0.0771748 0.0649965 0.0761062 0.0771748 0.0858707 0.0761062 0.0851434 0.0649965 0.0761062 0.0637308 0.0750889 0.0761062 0.0851434 0.0750889 0.0844078 0.0858707 0.093061 0.0851434 0.092578 0.093061 0.0990683 0.092578 0.0987482 0.0851434 0.092578 0.0844078 0.0920656 0.092578 0.0987482 0.0920656 0.0983927 0.0637308 0.0750889 0.062612 0.0741338 0.0750889 0.0844078 0.0741338 0.0836779 0.062612 0.0741338 0.0616241 0.0732455 0.0741338 0.0836779 0.0732455 0.0829644 0.0844078 0.0920656 0.0836779 0.0915341 0.0920656 0.0983927 0.0915341 0.0980092 0.0836779 0.0915341 0.0829644 0.0909924 0.0915341 0.0980092 0.0909924 0.0976044 0 0.0171044 0 0.0168038 0.0171044 0.0331953 0.0168038 0.0326085 0 0.0168038 0 0.0165562 0.0168038 0.0326085 0.0165562 0.0321211 0.0331953 0.0481582 0.0326085 0.0473649 0.0481582 0.0616241 0.0473649 0.0607516 0.0326085 0.0473649 0.0321211 0.0466881 0.0473649 0.0607516 0.0466881 0.0599801 0 0.0165562 0 0.0163506 0.0165562 0.0321211 0.0163506 0.0317131 0 0.0163506 0 0.0161785 0.0163506 0.0317131 0.0161785 0.0313687 0.0321211 0.0466881 0.0317131 0.0461073 0.0466881 0.0599801 0.0461073 0.0592967 0.0317131 0.0461073 0.0313687 0.0456061 0.0461073 0.0592967 0.0456061 0.0586899 0.0616241 0.0732455 0.0607516 0.0724245 0.0732455 0.0829644 0.0724245 0.0822747 0.0607516 0.0724245 0.0599801 0.0716689 0.0724245 0.0822747 0.0716689 0.0816139 0.0829644 0.0909924 0.0822747 0.0904481 0.0909924 0.0976044 0.0904481 0.0971843 0.0822747 0.0904481 0.0816139 0.0899076 0.0904481 0.0971843 0.0899076 0.0967542 0.0599801 0.0716689 0.0592967 0.0709753 0.0716689 0.0816139 0.0709753 0.0809847 0.0592967 0.0709753 0.0586899 0.0703394 0.0709753 0.0809847 0.0703394 0.0803886 0.0816139 0.0899076 0.0809847 0.0893756 0.0899076 0.0967542 0.0893756 0.0963189 0.0809847 0.0893756 0.0803886 0.088856 0.0893756 0.0963189 0.088856 0.0958822 0.0990683 0.10409 0.0987482 0.103874 0.10409 0.108271 0.103874 0.108117 0.0987482 0.103874 0.0983927 0.103623 0.103874 0.108117 0.103623 0.107931 0.108271 0.111727 0.108117 0.111605 0.111727 0.11456 0.111605 0.114449 0.108117 0.111605 0.107931 0.111455 0.111605 0.114449 0.111455 0.114315 0.0983927 0.103623 0.0980092 0.103342 0.103623 0.107931 0.103342 0.107717 0.0980092 0.103342 0.0976044 0.103036 0.103342 0.107717 0.103036 0.107478 0.107931 0.111455 0.107717 0.111281 0.111455 0.114315 0.111281 0.11416 0.107717 0.111281 0.107478 0.111083 0.111281 0.11416 0.111083 0.113986 0.11456 0.11686 0.114449 0.116747 0.11686 0.11871 0.116747 0.118585 0.114449 0.116747 0.114315 0.116615 0.116747 0.118585 0.116615 0.118446 0.11871 0.120185 0.118585 0.120042 0.120185 0.121349 0.120042 0.121186 0.118585 0.120042 0.118446 0.119889 0.120042 0.121186 0.119889 0.121015 0.114315 0.116615 0.11416 0.116465 0.116615 0.118446 0.116465 0.118292 0.11416 0.116465 0.113986 0.116299 0.116465 0.118292 0.116299 0.118124 0.118446 0.119889 0.118292 0.119724 0.119889 0.121015 0.119724 0.120835 0.118292 0.119724 0.118124 0.119548 0.119724 0.120835 0.119548 0.120646 0.0976044 0.103036 0.0971843 0.10271 0.103036 0.107478 0.10271 0.107218 0.0971843 0.10271 0.0967542 0.102368 0.10271 0.107218 0.102368 0.106939 0.107478 0.111083 0.107218 0.110866 0.111083 0.113986 0.110866 0.113793 0.107218 0.110866 0.106939 0.110631 0.110866 0.113793 0.110631 0.113583 0.0967542 0.102368 0.0963189 0.102013 0.102368 0.106939 0.102013 0.106645 0.0963189 0.102013 0.0958822 0.10165 0.102013 0.106645 0.10165 0.106339 0.106939 0.110631 0.106645 0.110379 0.110631 0.113583 0.110379 0.113359 0.106645 0.110379 0.106339 0.110114 0.110379 0.113359 0.110114 0.113121 0.113986 0.116299 0.113793 0.116117 0.116299 0.118124 0.116117 0.117943 0.113793 0.116117 0.113583 0.115921 0.116117 0.117943 0.115921 0.117749 0.118124 0.119548 0.117943 0.119361 0.119548 0.120646 0.119361 0.120449 0.117943 0.119361 0.117749 0.119163 0.119361 0.120449 0.119163 0.120243 0.113583 0.115921 0.113359 0.11571 0.115921 0.117749 0.11571 0.117544 0.113359 0.11571 0.113121 0.115487 0.11571 0.117544 0.115487 0.117327 0.117749 0.119163 0.117544 0.118956 0.119163 0.120243 0.118956 0.120029 0.117544 0.118956 0.117327 0.118739 0.118956 0.120029 0.118739 0.119806 0.12237 0.123553 0.122265 0.123404 0.123553 0.124507 0.123404 0.124319 0.122265 0.123404 0.122155 0.123252 0.123404 0.124319 0.123252 0.124131 0.124507 0.125269 0.124319 0.125048 0.125269 0.125873 0.125048 0.125625 0.124319 0.125048 0.124131 0.124829 0.125048 0.125625 0.124829 0.12538 0.122155 0.123252 0.122039 0.123098 0.123252 0.124131 0.123098 0.123942 0.122039 0.123098 0.121917 0.12294 0.123098 0.123942 0.12294 0.123752 0.124131 0.124829 0.123942 0.124611 0.124829 0.12538 0.124611 0.125136 0.123942 0.124611 0.123752 0.124393 0.124611 0.125136 0.124393 0.124894 0.125873 0.126348 0.125625 0.126078 0.126348 0.126719 0.126078 0.126431 0.125625 0.126078 0.12538 0.125811 0.126078 0.126431 0.125811 0.126146 0.126719 0.127005 0.126431 0.126704 0.127005 0.127225 0.126704 0.126913 0.126431 0.126704 0.126146 0.126405 0.126704 0.126913 0.126405 0.126604 0.12538 0.125811 0.125136 0.125547 0.125811 0.126146 0.125547 0.125865 0.125136 0.125547 0.124894 0.125284 0.125547 0.125865 0.125284 0.125585 0.126146 0.126405 0.125865 0.12611 0.126405 0.126604 0.12611 0.126298 0.125865 0.12611 0.125585 0.125817 0.12611 0.126298 0.125817 0.125993 0.121917 0.12294 0.121786 0.122777 0.12294 0.123752 0.122777 0.12356 0.121786 0.122777 0.121649 0.12261 0.122777 0.12356 0.12261 0.123366 0.123752 0.124393 0.12356 0.124174 0.124393 0.124894 0.124174 0.124652 0.12356 0.124174 0.123366 0.123955 0.124174 0.124652 0.123955 0.124411 0.121649 0.12261 0.121503 0.122438 0.12261 0.123366 0.122438 0.123168 0.121503 0.122438 0.121349 0.122259 0.122438 0.123168 0.122259 0.122966 0.123366 0.123955 0.123168 0.123733 0.123955 0.124411 0.123733 0.124169 0.123168 0.123733 0.122966 0.12351 0.123733 0.124169 0.12351 0.123926 0.124894 0.125284 0.124652 0.125023 0.125284 0.125585 0.125023 0.125307 0.124652 0.125023 0.124411 0.124762 0.125023 0.125307 0.124762 0.125031 0.125585 0.125817 0.125307 0.125525 0.125817 0.125993 0.125525 0.125691 0.125307 0.125525 0.125031 0.125236 0.125525 0.125691 0.125236 0.125391 0.124411 0.124762 0.124169 0.124502 0.124762 0.125031 0.124502 0.124755 0.124169 0.124502 0.123926 0.124242 0.124502 0.124755 0.124242 0.12448 0.125031 0.125236 0.124755 0.124947 0.125236 0.125391 0.124947 0.125091 0.124755 0.124947 0.12448 0.124659 0.124947 0.125091 0.124659 0.124793 0.127225 0.127392 0.126913 0.127072 0.127392 0.127518 0.127072 0.127193 0.126913 0.127072 0.126604 0.126755 0.127072 0.127193 0.126755 0.126869 0.127518 0.127613 0.127193 0.127283 0.127613 0.127682 0.127283 0.12735 0.127193 0.127283 0.126869 0.126955 0.127283 0.12735 0.126955 0.127019 0.126604 0.126755 0.126298 0.12644 0.126755 0.126869 0.12644 0.126548 0.126298 0.12644 0.125993 0.126128 0.12644 0.126548 0.126128 0.126229 0.126869 0.126955 0.126548 0.126629 0.126955 0.127019 0.126629 0.12669 0.126548 0.126629 0.126229 0.126305 0.126629 0.12669 0.126305 0.126362 0.127682 0.127733 0.12735 0.127399 0.127733 0.12777 0.127399 0.127434 0.12735 0.127399 0.127019 0.127066 0.127399 0.127434 0.127066 0.1271 0.12777 0.127796 0.127434 0.12746 0.127796 0.127814 0.12746 0.127478 0.127434 0.12746 0.1271 0.127124 0.12746 0.127478 0.127124 0.127142 0.127019 0.127066 0.12669 0.126734 0.127066 0.1271 0.126734 0.126766 0.12669 0.126734 0.126362 0.126403 0.126734 0.126766 0.126403 0.126434 0.1271 0.127124 0.126766 0.12679 0.127124 0.127142 0.12679 0.126807 0.126766 0.12679 0.126434 0.126456 0.12679 0.126807 0.126456 0.126472 0.125993 0.126128 0.125691 0.125817 0.126128 0.126229 0.125817 0.125911 0.125691 0.125817 0.125391 0.125507 0.125817 0.125911 0.125507 0.125595 0.126229 0.126305 0.125911 0.125982 0.126305 0.126362 0.125982 0.126035 0.125911 0.125982 0.125595 0.125661 0.125982 0.126035 0.125661 0.125709 0.125391 0.125507 0.125091 0.125199 0.125507 0.125595 0.125199 0.12528 0.125091 0.125199 0.124793 0.124892 0.125199 0.12528 0.124892 0.124966 0.125595 0.125661 0.12528 0.12534 0.125661 0.125709 0.12534 0.125384 0.12528 0.12534 0.124966 0.12502 0.12534 0.125384 0.12502 0.125061 0.126362 0.126403 0.126035 0.126074 0.126403 0.126434 0.126074 0.126102 0.126035 0.126074 0.125709 0.125745 0.126074 0.126102 0.125745 0.125771 0.126434 0.126456 0.126102 0.126123 0.126456 0.126472 0.126123 0.126138 0.126102 0.126123 0.125771 0.12579 0.126123 0.126138 0.12579 0.125804 0.125709 0.125745 0.125384 0.125417 0.125745 0.125771 0.125417 0.125441 0.125384 0.125417 0.125061 0.12509 0.125417 0.125441 0.12509 0.125111 0.125771 0.12579 0.125441 0.125458 0.12579 0.125804 0.125458 0.125471 0.125441 0.125458 0.125111 0.125127 0.125458 0.125471 0.125127 0.125138 0.121349 0.122259 0.121186 0.122075 0.122259 0.122966 0.122075 0.122761 0.121186 0.122075 0.121015 0.121885 0.122075 0.122761 0.121885 0.122551 0.122966 0.12351 0.122761 0.123284 0.12351 0.123926 0.123284 0.123682 0.122761 0.123284 0.122551 0.123056 0.123284 0.123682 0.123056 0.123436 0.121015 0.121885 0.120835 0.121688 0.121885 0.122551 0.121688 0.122336 0.120835 0.121688 0.120646 0.121484 0.121688 0.122336 0.121484 0.122117 0.122551 0.123056 0.122336 0.122824 0.123056 0.123436 0.122824 0.123188 0.122336 0.122824 0.122117 0.122588 0.122824 0.123188 0.122588 0.122937 0.123926 0.124242 0.123682 0.123981 0.124242 0.12448 0.123981 0.124205 0.123682 0.123981 0.123436 0.123719 0.123981 0.124205 0.123719 0.123929 0.12448 0.124659 0.124205 0.124371 0.124659 0.124793 0.124371 0.124495 0.124205 0.124371 0.123929 0.124084 0.124371 0.124495 0.124084 0.124197 0.123436 0.123719 0.123188 0.123456 0.123719 0.123929 0.123456 0.123653 0.123188 0.123456 0.122937 0.123192 0.123456 0.123653 0.123192 0.123376 0.123929 0.124084 0.123653 0.123796 0.124084 0.124197 0.123796 0.1239 0.123653 0.123796 0.123376 0.123508 0.123796 0.1239 0.123508 0.123602 0.120646 0.121484 0.120449 0.121274 0.121484 0.122117 0.121274 0.121892 0.120449 0.121274 0.120243 0.121057 0.121274 0.121892 0.121057 0.121662 0.122117 0.122588 0.121892 0.122349 0.122588 0.122937 0.122349 0.122684 0.121892 0.122349 0.121662 0.122106 0.122349 0.122684 0.122106 0.122427 0.120243 0.121057 0.120029 0.120833 0.121057 0.121662 0.120833 0.121426 0.120029 0.120833 0.119806 0.120602 0.120833 0.121426 0.120602 0.121185 0.121662 0.122106 0.121426 0.121858 0.122106 0.122427 0.121858 0.122168 0.121426 0.121858 0.121185 0.121606 0.121858 0.122168 0.121606 0.121905 0.122937 0.123192 0.122684 0.122925 0.123192 0.123376 0.122925 0.123097 0.122684 0.122925 0.122427 0.122656 0.122925 0.123097 0.122656 0.122818 0.123376 0.123508 0.123097 0.123219 0.123508 0.123602 0.123219 0.123304 0.123097 0.123219 0.122818 0.122929 0.123219 0.123304 0.122929 0.123006 0.122427 0.122656 0.122168 0.122385 0.122656 0.122818 0.122385 0.122536 0.122168 0.122385 0.121905 0.122112 0.122385 0.122536 0.122112 0.122252 0.122818 0.122929 0.122536 0.122638 0.122929 0.123006 0.122638 0.122706 0.122536 0.122638 0.122252 0.122346 0.122638 0.122706 0.122346 0.122406 0.124793 0.124892 0.124495 0.124586 0.124892 0.124966 0.124586 0.124653 0.124495 0.124586 0.124197 0.12428 0.124586 0.124653 0.12428 0.12434 0.124966 0.12502 0.124653 0.124702 0.12502 0.125061 0.124702 0.124737 0.124653 0.124702 0.12434 0.124383 0.124702 0.124737 0.124383 0.124415 0.124197 0.12428 0.1239 0.123974 0.12428 0.12434 0.123974 0.124027 0.1239 0.123974 0.123602 0.123669 0.123974 0.124027 0.123669 0.123715 0.12434 0.124383 0.124027 0.124065 0.124383 0.124415 0.124065 0.124093 0.124027 0.124065 0.123715 0.123748 0.124065 0.124093 0.123748 0.123771 0.125061 0.12509 0.124737 0.124763 0.12509 0.125111 0.124763 0.124782 0.124737 0.124763 0.124415 0.124437 0.124763 0.124782 0.124437 0.124454 0.125111 0.125127 0.124782 0.124796 0.125127 0.125138 0.124796 0.124806 0.124782 0.124796 0.124454 0.124465 0.124796 0.124806 0.124465 0.124474 0.124415 0.124437 0.124093 0.124112 0.124437 0.124454 0.124112 0.124125 0.124093 0.124112 0.123771 0.123786 0.124112 0.124125 0.123786 0.123797 0.124454 0.124465 0.124125 0.124135 0.124465 0.124474 0.124135 0.124142 0.124125 0.124135 0.123797 0.123805 0.124135 0.124142 0.123805 0.12381 0.123602 0.123669 0.123304 0.123363 0.123669 0.123715 0.123363 0.123403 0.123304 0.123363 0.123006 0.123057 0.123363 0.123403 0.123057 0.123091 0.123715 0.123748 0.123403 0.12343 0.123748 0.123771 0.12343 0.123449 0.123403 0.12343 0.123091 0.123113 0.12343 0.123449 0.123113 0.123127 0.123006 0.123057 0.122706 0.12275 0.123057 0.123091 0.12275 0.122778 0.122706 0.12275 0.122406 0.122443 0.12275 0.122778 0.122443 0.122465 0.123091 0.123113 0.122778 0.122795 0.123113 0.123127 0.122795 0.122805 0.122778 0.122795 0.122465 0.122477 0.122795 0.122805 0.122477 0.122483 0.123771 0.123786 0.123449 0.123461 0.123786 0.123797 0.123461 0.123469 0.123449 0.123461 0.123127 0.123136 0.123461 0.123469 0.123136 0.123142 0.123797 0.123805 0.123469 0.123475 0.123805 0.12381 0.123475 0.123479 0.123469 0.123475 0.123142 0.123145 0.123475 0.123479 0.123145 0.123147 0.123127 0.123136 0.122805 0.122811 0.123136 0.123142 0.122811 0.122814 0.122805 0.122811 0.122483 0.122486 0.122811 0.122814 0.122486 0.122486 0.123142 0.123145 0.122814 0.122816 0.123145 0.123147 0.122816 0.122816 0.122814 0.122816 0.122486 0.122486 0.122816 0.122816 0.122486 0.122485 0 0.0161785 0 0.0160331 0.0161785 0.0313687 0.0160331 0.0310755 0 0.0160331 0 0.0159092 0.0160331 0.0310755 0.0159092 0.0308239 0.0313687 0.0456061 0.0310755 0.0451711 0.0456061 0.0586899 0.0451711 0.0581495 0.0310755 0.0451711 0.0308239 0.0447911 0.0451711 0.0581495 0.0447911 0.0576669 0 0.0159092 0 0.0158025 0.0159092 0.0308239 0.0158025 0.0306061 0 0.0158025 0 0.0157097 0.0158025 0.0306061 0.0157097 0.0304158 0.0308239 0.0447911 0.0306061 0.0444573 0.0447911 0.0576669 0.0444573 0.0572343 0.0306061 0.0444573 0.0304158 0.044162 0.0444573 0.0572343 0.044162 0.0568452 0.0586899 0.0703394 0.0581495 0.0697568 0.0703394 0.0803886 0.0697568 0.079826 0.0581495 0.0697568 0.0576669 0.0692229 0.0697568 0.079826 0.0692229 0.0792962 0.0803886 0.088856 0.079826 0.0883514 0.088856 0.0958822 0.0883514 0.0954476 0.079826 0.0883514 0.0792962 0.0878638 0.0883514 0.0954476 0.0878638 0.0950177 0.0576669 0.0692229 0.0572343 0.0687332 0.0692229 0.0792962 0.0687332 0.0787983 0.0572343 0.0687332 0.0568452 0.0682836 0.0687332 0.0787983 0.0682836 0.0783309 0.0792962 0.0878638 0.0787983 0.0873944 0.0878638 0.0950177 0.0873944 0.0945946 0.0787983 0.0873944 0.0783309 0.0869437 0.0873944 0.0945946 0.0869437 0.09418 0 0.0157097 0 0.0156282 0.0157097 0.0304158 0.0156282 0.030248 0 0.0156282 0 0.0155559 0.0156282 0.030248 0.0155559 0.0300989 0.0304158 0.044162 0.030248 0.0438993 0.044162 0.0568452 0.0438993 0.0564937 0.030248 0.0438993 