# vtk DataFile Version 3.0
#This file was generated by the deal.II library on 2022/1/6 at 22:57:18
ASCII
DATASET UNSTRUCTURED_GRID

POINTS 16384 double
0 0 0
0.1875 0 0
0 0.046875 0
0.1875 0.046875 0
0.1875 0 0
0.375 0 0
0.1875 0.046875 0
0.375 0.046875 0
0 0.046875 0
0.1875 0.046875 0
0 0.09375 0
0.1875 0.09375 0
0.1875 0.046875 0
0.375 0.046875 0
0.1875 0.09375 0
0.375 0.09375 0
0.375 0 0
0.5625 0 0
0.375 0.046875 0
0.5625 0.046875 0
0.5625 0 0
0.75 0 0
0.5625 0.046875 0
0.75 0.046875 0
0.375 0.046875 0
0.5625 0.046875 0
0.375 0.09375 0
0.5625 0.09375 0
0.5625 0.046875 0
0.75 0.046875 0
0.5625 0.09375 0
0.75 0.09375 0
0 0.09375 0
0.1875 0.09375 0
0 0.140625 0
0.1875 0.140625 0
0.1875 0.09375 0
0.375 0.09375 0
0.1875 0.140625 0
0.375 0.140625 0
0 0.140625 0
0.1875 0.140625 0
0 0.1875 0
0.1875 0.1875 0
0.1875 0.140625 0
0.375 0.140625 0
0.1875 0.1875 0
0.375 0.1875 0
0.375 0.09375 0
0.5625 0.09375 0
0.375 0.140625 0
0.5625 0.140625 0
0.5625 0.09375 0
0.75 0.09375 0
0.5625 0.140625 0
0.75 0.140625 0
0.375 0.140625 0
0.5625 0.140625 0
0.375 0.1875 0
0.5625 0.1875 0
0.5625 0.140625 0
0.75 0.140625 0
0.5625 0.1875 0
0.75 0.1875 0
0.75 0 0
0.9375 0 0
0.75 0.046875 0
0.9375 0.046875 0
0.9375 0 0
1.125 0 0
0.9375 0.046875 0
1.125 0.046875 0
0.75 0.046875 0
0.9375 0.046875 0
0.75 0.09375 0
0.9375 0.09375 0
0.9375 0.046875 0
1.125 0.046875 0
0.9375 0.09375 0
1.125 0.09375 0
1.125 0 0
1.3125 0 0
1.125 0.046875 0
1.3125 0.046875 0
1.3125 0 0
1.5 0 0
1.3125 0.046875 0
1.5 0.046875 0
1.125 0.046875 0
1.3125 0.046875 0
1.125 0.09375 0
1.3125 0.09375 0
1.3125 0.046875 0
1.5 0.046875 0
1.3125 0.09375 0
1.5 0.09375 0
0.75 0.09375 0
0.9375 0.09375 0
0.75 0.140625 0
0.9375 0.140625 0
0.9375 0.09375 0
1.125 0.09375 0
0.9375 0.140625 0
1.125 0.140625 0
0.75 0.140625 0
0.9375 0.140625 0
0.75 0.1875 0
0.9375 0.1875 0
0.9375 0.140625 0
1.125 0.140625 0
0.9375 0.1875 0
1.125 0.1875 0
1.125 0.09375 0
1.3125 0.09375 0
1.125 0.140625 0
1.3125 0.140625 0
1.3125 0.09375 0
1.5 0.09375 0
1.3125 0.140625 0
1.5 0.140625 0
1.125 0.140625 0
1.3125 0.140625 0
1.125 0.1875 0
1.3125 0.1875 0
1.3125 0.140625 0
1.5 0.140625 0
1.3125 0.1875 0
1.5 0.1875 0
0 0.1875 0
0.1875 0.1875 0
0 0.234375 0
0.1875 0.234375 0
0.1875 0.1875 0
0.375 0.1875 0
0.1875 0.234375 0
0.375 0.234375 0
0 0.234375 0
0.1875 0.234375 0
0 0.28125 0
0.1875 0.28125 0
0.1875 0.234375 0
0.375 0.234375 0
0.1875 0.28125 0
0.375 0.28125 0
0.375 0.1875 0
0.5625 0.1875 0
0.375 0.234375 0
0.5625 0.234375 0
0.5625 0.1875 0
0.75 0.1875 0
0.5625 0.234375 0
0.75 0.234375 0
0.375 0.234375 0
0.5625 0.234375 0
0.375 0.28125 0
0.5625 0.28125 0
0.5625 0.234375 0
0.75 0.234375 0
0.5625 0.28125 0
0.75 0.28125 0
0 0.28125 0
0.1875 0.28125 0
0 0.328125 0
0.1875 0.328125 0
0.1875 0.28125 0
0.375 0.28125 0
0.1875 0.328125 0
0.375 0.328125 0
0 0.328125 0
0.1875 0.328125 0
0 0.375 0
0.1875 0.375 0
0.1875 0.328125 0
0.375 0.328125 0
0.1875 0.375 0
0.375 0.375 0
0.375 0.28125 0
0.5625 0.28125 0
0.375 0.328125 0
0.5625 0.328125 0
0.5625 0.28125 0
0.75 0.28125 0
0.5625 0.328125 0
0.75 0.328125 0
0.375 0.328125 0
0.5625 0.328125 0
0.375 0.375 0
0.5625 0.375 0
0.5625 0.328125 0
0.75 0.328125 0
0.5625 0.375 0
0.75 0.375 0
0.75 0.1875 0
0.9375 0.1875 0
0.75 0.234375 0
0.9375 0.234375 0
0.9375 0.1875 0
1.125 0.1875 0
0.9375 0.234375 0
1.125 0.234375 0
0.75 0.234375 0
0.9375 0.234375 0
0.75 0.28125 0
0.9375 0.28125 0
0.9375 0.234375 0
1.125 0.234375 0
0.9375 0.28125 0
1.125 0.28125 0
1.125 0.1875 0
1.3125 0.1875 0
1.125 0.234375 0
1.3125 0.234375 0
1.3125 0.1875 0
1.5 0.1875 0
1.3125 0.234375 0
1.5 0.234375 0
1.125 0.234375 0
1.3125 0.234375 0
1.125 0.28125 0
1.3125 0.28125 0
1.3125 0.234375 0
1.5 0.234375 0
1.3125 0.28125 0
1.5 0.28125 0
0.75 0.28125 0
0.9375 0.28125 0
0.75 0.328125 0
0.9375 0.328125 0
0.9375 0.28125 0
1.125 0.28125 0
0.9375 0.328125 0
1.125 0.328125 0
0.75 0.328125 0
0.9375 0.328125 0
0.75 0.375 0
0.9375 0.375 0
0.9375 0.328125 0
1.125 0.328125 0
0.9375 0.375 0
1.125 0.375 0
1.125 0.28125 0
1.3125 0.28125 0
1.125 0.328125 0
1.3125 0.328125 0
1.3125 0.28125 0
1.5 0.28125 0
1.3125 0.328125 0
1.5 0.328125 0
1.125 0.328125 0
1.3125 0.328125 0
1.125 0.375 0
1.3125 0.375 0
1.3125 0.328125 0
1.5 0.328125 0
1.3125 0.375 0
1.5 0.375 0
1.5 0 0
1.6875 0 0
1.5 0.046875 0
1.6875 0.046875 0
1.6875 0 0
1.875 0 0
1.6875 0.046875 0
1.875 0.046875 0
1.5 0.046875 0
1.6875 0.046875 0
1.5 0.09375 0
1.6875 0.09375 0
1.6875 0.046875 0
1.875 0.046875 0
1.6875 0.09375 0
1.875 0.09375 0
1.875 0 0
2.0625 0 0
1.875 0.046875 0
2.0625 0.046875 0
2.0625 0 0
2.25 0 0
2.0625 0.046875 0
2.25 0.046875 0
1.875 0.046875 0
2.0625 0.046875 0
1.875 0.09375 0
2.0625 0.09375 0
2.0625 0.046875 0
2.25 0.046875 0
2.0625 0.09375 0
2.25 0.09375 0
1.5 0.09375 0
1.6875 0.09375 0
1.5 0.140625 0
1.6875 0.140625 0
1.6875 0.09375 0
1.875 0.09375 0
1.6875 0.140625 0
1.875 0.140625 0
1.5 0.140625 0
1.6875 0.140625 0
1.5 0.1875 0
1.6875 0.1875 0
1.6875 0.140625 0
1.875 0.140625 0
1.6875 0.1875 0
1.875 0.1875 0
1.875 0.09375 0
2.0625 0.09375 0
1.875 0.140625 0
2.0625 0.140625 0
2.0625 0.09375 0
2.25 0.09375 0
2.0625 0.140625 0
2.25 0.140625 0
1.875 0.140625 0
2.0625 0.140625 0
1.875 0.1875 0
2.0625 0.1875 0
2.0625 0.140625 0
2.25 0.140625 0
2.0625 0.1875 0
2.25 0.1875 0
2.25 0 0
2.4375 0 0
2.25 0.046875 0
2.4375 0.046875 0
2.4375 0 0
2.625 0 0
2.4375 0.046875 0
2.625 0.046875 0
2.25 0.046875 0
2.4375 0.046875 0
2.25 0.09375 0
2.4375 0.09375 0
2.4375 0.046875 0
2.625 0.046875 0
2.4375 0.09375 0
2.625 0.09375 0
2.625 0 0
2.8125 0 0
2.625 0.046875 0
2.8125 0.046875 0
2.8125 0 0
3 0 0
2.8125 0.046875 0
3 0.046875 0
2.625 0.046875 0
2.8125 0.046875 0
2.625 0.09375 0
2.8125 0.09375 0
2.8125 0.046875 0
3 0.046875 0
2.8125 0.09375 0
3 0.09375 0
2.25 0.09375 0
2.4375 0.09375 0
2.25 0.140625 0
2.4375 0.140625 0
2.4375 0.09375 0
2.625 0.09375 0
2.4375 0.140625 0
2.625 0.140625 0
2.25 0.140625 0
2.4375 0.140625 0
2.25 0.1875 0
2.4375 0.1875 0
2.4375 0.140625 0
2.625 0.140625 0
2.4375 0.1875 0
2.625 0.1875 0
2.625 0.09375 0
2.8125 0.09375 0
2.625 0.140625 0
2.8125 0.140625 0
2.8125 0.09375 0
3 0.09375 0
2.8125 0.140625 0
3 0.140625 0
2.625 0.140625 0
2.8125 0.140625 0
2.625 0.1875 0
2.8125 0.1875 0
2.8125 0.140625 0
3 0.140625 0
2.8125 0.1875 0
3 0.1875 0
1.5 0.1875 0
1.6875 0.1875 0
1.5 0.234375 0
1.6875 0.234375 0
1.6875 0.1875 0
1.875 0.1875 0
1.6875 0.234375 0
1.875 0.234375 0
1.5 0.234375 0
1.6875 0.234375 0
1.5 0.28125 0
1.6875 0.28125 0
1.6875 0.234375 0
1.875 0.234375 0
1.6875 0.28125 0
1.875 0.28125 0
1.875 0.1875 0
2.0625 0.1875 0
1.875 0.234375 0
2.0625 0.234375 0
2.0625 0.1875 0
2.25 0.1875 0
2.0625 0.234375 0
2.25 0.234375 0
1.875 0.234375 0
2.0625 0.234375 0
1.875 0.28125 0
2.0625 0.28125 0
2.0625 0.234375 0
2.25 0.234375 0
2.0625 0.28125 0
2.25 0.28125 0
1.5 0.28125 0
1.6875 0.28125 0
1.5 0.328125 0
1.6875 0.328125 0
1.6875 0.28125 0
1.875 0.28125 0
1.6875 0.328125 0
1.875 0.328125 0
1.5 0.328125 0
1.6875 0.328125 0
1.5 0.375 0
1.6875 0.375 0
1.6875 0.328125 0
1.875 0.328125 0
1.6875 0.375 0
1.875 0.375 0
1.875 0.28125 0
2.0625 0.28125 0
1.875 0.328125 0
2.0625 0.328125 0
2.0625 0.28125 0
2.25 0.28125 0
2.0625 0.328125 0
2.25 0.328125 0
1.875 0.328125 0
2.0625 0.328125 0
1.875 0.375 0
2.0625 0.375 0
2.0625 0.328125 0
2.25 0.328125 0
2.0625 0.375 0
2.25 0.375 0
2.25 0.1875 0
2.4375 0.1875 0
2.25 0.234375 0
2.4375 0.234375 0
2.4375 0.1875 0
2.625 0.1875 0
2.4375 0.234375 0
2.625 0.234375 0
2.25 0.234375 0
2.4375 0.234375 0
2.25 0.28125 0
2.4375 0.28125 0
2.4375 0.234375 0
2.625 0.234375 0
2.4375 0.28125 0
2.625 0.28125 0
2.625 0.1875 0
2.8125 0.1875 0
2.625 0.234375 0
2.8125 0.234375 0
2.8125 0.1875 0
3 0.1875 0
2.8125 0.234375 0
3 0.234375 0
2.625 0.234375 0
2.8125 0.234375 0
2.625 0.28125 0
2.8125 0.28125 0
2.8125 0.234375 0
3 0.234375 0
2.8125 0.28125 0
3 0.28125 0
2.25 0.28125 0
2.4375 0.28125 0
2.25 0.328125 0
2.4375 0.328125 0
2.4375 0.28125 0
2.625 0.28125 0
2.4375 0.328125 0
2.625 0.328125 0
2.25 0.328125 0
2.4375 0.328125 0
2.25 0.375 0
2.4375 0.375 0
2.4375 0.328125 0
2.625 0.328125 0
2.4375 0.375 0
2.625 0.375 0
2.625 0.28125 0
2.8125 0.28125 0
2.625 0.328125 0
2.8125 0.328125 0
2.8125 0.28125 0
3 0.28125 0
2.8125 0.328125 0
3 0.328125 0
2.625 0.328125 0
2.8125 0.328125 0
2.625 0.375 0
2.8125 0.375 0
2.8125 0.328125 0
3 0.328125 0
2.8125 0.375 0
3 0.375 0
0 0.375 0
0.1875 0.375 0
0 0.421875 0
0.1875 0.421875 0
0.1875 0.375 0
0.375 0.375 0
0.1875 0.421875 0
0.375 0.421875 0
0 0.421875 0
0.1875 0.421875 0
0 0.46875 0
0.1875 0.46875 0
0.1875 0.421875 0
0.375 0.421875 0
0.1875 0.46875 0
0.375 0.46875 0
0.375 0.375 0
0.5625 0.375 0
0.375 0.421875 0
0.5625 0.421875 0
0.5625 0.375 0
0.75 0.375 0
0.5625 0.421875 0
0.75 0.421875 0
0.375 0.421875 0
0.5625 0.421875 0
0.375 0.46875 0
0.5625 0.46875 0
0.5625 0.421875 0
0.75 0.421875 0
0.5625 0.46875 0
0.75 0.46875 0
0 0.46875 0
0.1875 0.46875 0
0 0.515625 0
0.1875 0.515625 0
0.1875 0.46875 0
0.375 0.46875 0
0.1875 0.515625 0
0.375 0.515625 0
0 0.515625 0
0.1875 0.515625 0
0 0.5625 0
0.1875 0.5625 0
0.1875 0.515625 0
0.375 0.515625 0
0.1875 0.5625 0
0.375 0.5625 0
0.375 0.46875 0
0.5625 0.46875 0
0.375 0.515625 0
0.5625 0.515625 0
0.5625 0.46875 0
0.75 0.46875 0
0.5625 0.515625 0
0.75 0.515625 0
0.375 0.515625 0
0.5625 0.515625 0
0.375 0.5625 0
0.5625 0.5625 0
0.5625 0.515625 0
0.75 0.515625 0
0.5625 0.5625 0
0.75 0.5625 0
0.75 0.375 0
0.9375 0.375 0
0.75 0.421875 0
0.9375 0.421875 0
0.9375 0.375 0
1.125 0.375 0
0.9375 0.421875 0
1.125 0.421875 0
0.75 0.421875 0
0.9375 0.421875 0
0.75 0.46875 0
0.9375 0.46875 0
0.9375 0.421875 0
1.125 0.421875 0
0.9375 0.46875 0
1.125 0.46875 0
1.125 0.375 0
1.3125 0.375 0
1.125 0.421875 0
1.3125 0.421875 0
1.3125 0.375 0
1.5 0.375 0
1.3125 0.421875 0
1.5 0.421875 0
1.125 0.421875 0
1.3125 0.421875 0
1.125 0.46875 0
1.3125 0.46875 0
1.3125 0.421875 0
1.5 0.421875 0
1.3125 0.46875 0
1.5 0.46875 0
0.75 0.46875 0
0.9375 0.46875 0
0.75 0.515625 0
0.9375 0.515625 0
0.9375 0.46875 0
1.125 0.46875 0
0.9375 0.515625 0
1.125 0.515625 0
0.75 0.515625 0
0.9375 0.515625 0
[...]
POINT_DATA 16384
SCALARS x_displacement double 1
LOOKUP_TABLE default
0 0.0336444 0 0.0300768 0.0336444 0.0593624 0.0300768 0.0576875 0 0.0300768 0 0.0276298 0.0300768 0.0576875 0.0276298 0.0549145 0.0593624 0.0755331 0.0576875 0.0742241 0.0755331 0.0819836 0.0742241 0.0811698 0.0576875 0.0742241 0.0549145 0.0722299 0.0742241 0.0811698 0.0722299 0.0799154 0 0.0276298 0 0.0256223 0.0276298 0.0549145 0.0256223 0.0513492 0 0.0256223 0 0.0239382 0.0256223 0.0513492 0.0239382 0.0477295 0.0549145 0.0722299 0.0513492 0.0694486 0.0722299 0.0799154 0.0694486 0.0782586 0.0513492 0.0694486 0.0477295 0.0657324 0.0694486 0.0782586 0.0657324 0.0763308 0.0819836 0.0880671 0.0811698 0.0877174 0.0880671 0.0947433 0.0877174 0.0947372 0.0811698 0.0877174 0.0799154 0.0871314 0.0877174 0.0947372 0.0871314 0.0945499 0.0947433 0.101537 0.0947372 0.101678 0.101537 0.108067 0.101678 0.108277 0.0947372 0.101678 0.0945499 0.101691 0.101678 0.108277 0.101691 0.108389 0.0799154 0.0871314 0.0782586 0.0863492 0.0871314 0.0945499 0.0863492 0.0942095 0.0782586 0.0863492 0.0763308 0.0854179 0.0863492 0.0942095 0.0854179 0.093738 0.0945499 0.101691 0.0942095 0.101587 0.101691 0.108389 0.101587 0.108412 0.0942095 0.101587 0.093738 0.10138 0.101587 0.108412 0.10138 0.108351 0 0.0239382 0 0.0225141 0.0239382 0.0477295 0.0225141 0.0443449 0 0.0225141 0 0.0212636 0.0225141 0.0443449 0.0212636 0.0416617 0.0477295 0.0657324 0.0443449 0.0619615 0.0657324 0.0763308 0.0619615 0.0743674 0.0443449 0.0619615 0.0416617 0.0589404 0.0619615 0.0743674 0.0589404 0.0724041 0 0.0212636 0 0.0202104 0.0212636 0.0416617 0.0202104 0.0395331 0 0.0202104 0 0.0193435 0.0202104 0.0395331 0.0193435 0.0378366 0.0416617 0.0589404 0.0395331 0.0565243 0.0589404 0.0724041 0.0565243 0.070568 0.0395331 0.0565243 0.0378366 0.0545508 0.0565243 0.070568 0.0545508 0.0689075 0.0763308 0.0854179 0.0743674 0.08436 0.0854179 0.093738 0.08436 0.0931629 0.0743674 0.08436 0.0724041 0.083233 0.08436 0.0931629 0.083233 0.0925058 0.093738 0.10138 0.0931629 0.101083 0.10138 0.108351 0.101083 0.108217 0.0931629 0.101083 0.0925058 0.10071 0.101083 0.108217 0.10071 0.108016 0.0724041 0.083233 0.070568 0.0820698 0.083233 0.0925058 0.0820698 0.0917908 0.070568 0.0820698 0.0689075 0.0809117 0.0820698 0.0917908 0.0809117 0.091037 0.0925058 0.10071 0.0917908 0.100275 0.10071 0.108016 0.100275 0.107759 0.0917908 0.100275 0.091037 0.0997906 0.100275 0.107759 0.0997906 0.107451 0.108067 0.114165 0.108277 0.114397 0.114165 0.119753 0.114397 0.119979 0.108277 0.114397 0.108389 0.114554 0.114397 0.119979 0.114554 0.120144 0.119753 0.124801 0.119979 0.125001 0.124801 0.129306 0.125001 0.129469 0.119979 0.125001 0.120144 0.125154 0.125001 0.129469 0.125154 0.129595 0.108389 0.114554 0.108412 0.114639 0.114554 0.120144 0.114639 0.120253 0.108412 0.114639 0.108351 0.114658 0.114639 0.120253 0.114658 0.120309 0.120144 0.125154 0.120253 0.125261 0.125154 0.129595 0.125261 0.129685 0.120253 0.125261 0.120309 0.125326 0.125261 0.129685 0.125326 0.12974 0.129306 0.133286 0.129469 0.133404 0.133286 0.136766 0.133404 0.136837 0.129469 0.133404 0.129595 0.133494 0.133404 0.136837 0.133494 0.136886 0.136766 0.139781 0.136837 0.139804 0.139781 0.142371 0.139804 0.142348 0.136837 0.139804 0.136886 0.139812 0.139804 0.142348 0.139812 0.142313 0.129595 0.133494 0.129685 0.133556 0.133494 0.136886 0.133556 0.136915 0.129685 0.133556 0.12974 0.133591 0.133556 0.136915 0.133591 0.136921 0.136886 0.139812 0.136915 0.139803 0.139812 0.142313 0.139803 0.142267 0.136915 0.139803 0.136921 0.139778 0.139803 0.142267 0.139778 0.142208 0.108351 0.114658 0.108217 0.114615 0.114658 0.120309 0.114615 0.120314 0.108217 0.114615 0.108016 0.114517 0.114615 0.120314 0.114517 0.120272 0.120309 0.125326 0.120314 0.125349 0.125326 0.12974 0.125349 0.129763 0.120314 0.125349 0.120272 0.125334 0.125349 0.129763 0.125334 0.129753 0.108016 0.114517 0.107759 0.114368 0.114517 0.120272 0.114368 0.120187 0.107759 0.114368 0.107451 0.114175 0.114368 0.120187 0.114175 0.120063 0.120272 0.125334 0.120187 0.125282 0.125334 0.129753 0.125282 0.129714 0.120187 0.125282 0.120063 0.125197 0.125282 0.129714 0.125197 0.129645 0.12974 0.133591 0.129763 0.133599 0.133591 0.136921 0.133599 0.136907 0.129763 0.133599 0.129753 0.133582 0.133599 0.136907 0.133582 0.136872 0.136921 0.139778 0.136907 0.139736 0.139778 0.142208 0.139736 0.142137 0.136907 0.139736 0.136872 0.139679 0.139736 0.142137 0.139679 0.142053 0.129753 0.133582 0.129714 0.133539 0.133582 0.136872 0.133539 0.136818 0.129714 0.133539 0.129645 0.133473 0.133539 0.136818 0.133473 0.136744 0.136872 0.139679 0.136818 0.139605 0.139679 0.142053 0.139605 0.141958 0.136818 0.139605 0.136744 0.139516 0.139605 0.141958 0.139516 0.141849 0 0.0193435 0 0.0186378 0.0193435 0.0378366 0.0186378 0.0364753 0 0.0186378 0 0.0180656 0.0186378 0.0364753 0.0180656 0.0353756 0.0378366 0.0545508 0.0364753 0.0529188 0.0545508 0.0689075 0.0529188 0.0674269 0.0364753 0.0529188 0.0353756 0.0515581 0.0529188 0.0674269 0.0515581 0.0661152 0 0.0180656 0 0.0176014 0.0180656 0.0353756 0.0176014 0.0344812 0 0.0176014 0 0.0172233 0.0176014 0.0344812 0.0172233 0.0337486 0.0353756 0.0515581 0.0344812 0.0504159 0.0515581 0.0661152 0.0504159 0.0649566 0.0344812 0.0504159 0.0337486 0.0494519 0.0504159 0.0649566 0.0494519 0.0639343 0.0689075 0.0809117 0.0674269 0.0797911 0.0809117 0.091037 0.0797911 0.0902631 0.0674269 0.0797911 0.0661152 0.0787278 0.0797911 0.0902631 0.0787278 0.0894857 0.091037 0.0997906 0.0902631 0.0992693 0.0997906 0.107451 0.0992693 0.107103 0.0902631 0.0992693 0.0894857 0.0987222 0.0992693 0.107103 0.0987222 0.106722 0.0661152 0.0787278 0.0649566 0.0777322 0.0787278 0.0894857 0.0777322 0.0887184 0.0649566 0.0777322 0.0639343 0.0768083 0.0777322 0.0887184 0.0768083 0.0879716 0.0894857 0.0987222 0.0887184 0.0981591 0.0987222 0.106722 0.0981591 0.106315 0.0887184 0.0981591 0.0879716 0.097589 0.0981591 0.106315 0.097589 0.105888 0 0.0172233 0 0.0169138 0.0172233 0.0337486 0.0169138 0.0331444 0 0.0169138 0 0.0166586 0.0169138 0.0331444 0.0166586 0.0326422 0.0337486 0.0494519 0.0331444 0.0486337 0.0494519 0.0639343 0.0486337 0.063032 0.0331444 0.0486337 0.0326422 0.0479357 0.0486337 0.063032 0.0479357 0.062235 0 0.0166586 0 0.0164466 0.0166586 0.0326422 0.0164466 0.0322218 0 0.0164466 0 0.0162691 0.0164466 0.0322218 0.0162691 0.0318669 0.0326422 0.0479357 0.0322218 0.0473369 0.0479357 0.062235 0.0473369 0.0615296 0.0322218 0.0473369 0.0318669 0.0468205 0.0473369 0.0615296 0.0468205 0.0609039 0.0639343 0.0768083 0.063032 0.0759561 0.0768083 0.0879716 0.0759561 0.0872523 0.063032 0.0759561 0.062235 0.0751733 0.0759561 0.0872523 0.0751733 0.0865651 0.0879716 0.097589 0.0872523 0.0970191 0.097589 0.105888 0.0970191 0.105448 0.0872523 0.0970191 0.0865651 0.0964555 0.0970191 0.105448 0.0964555 0.105 0.062235 0.0751733 0.0615296 0.0744558 0.0751733 0.0865651 0.0744558 0.0859127 0.0615296 0.0744558 0.0609039 0.0737993 0.0744558 0.0859127 0.0737993 0.0852962 0.0865651 0.0964555 0.0859127 0.095903 0.0964555 0.105 0.095903 0.104548 0.0859127 0.095903 0.0852962 0.0953649 0.095903 0.104548 0.0953649 0.104097 0.107451 0.114175 0.107103 0.113942 0.114175 0.120063 0.113942 0.119904 0.107103 0.113942 0.106722 0.113675 0.113942 0.119904 0.113675 0.119712 0.120063 0.125197 0.119904 0.125081 0.125197 0.129645 0.125081 0.129551 0.119904 0.125081 0.119712 0.124936 0.125081 0.129551 0.124936 0.129431 0.106722 0.113675 0.106315 0.113379 0.113675 0.119712 0.113379 0.119492 0.106315 0.113379 0.105888 0.113059 0.113379 0.119492 0.113059 0.119248 0.119712 0.124936 0.119492 0.124765 0.124936 0.129431 0.124765 0.129288 0.119492 0.124765 0.119248 0.12457 0.124765 0.129288 0.12457 0.129124 0.129645 0.133473 0.129551 0.133385 0.133473 0.136744 0.133385 0.136651 0.129551 0.133385 0.129431 0.133276 0.133385 0.136651 0.133276 0.13654 0.136744 0.139516 0.136651 0.139412 0.139516 0.141849 0.139412 0.141729 0.136651 0.139412 0.13654 0.139293 0.139412 0.141729 0.139293 0.141596 0.129431 0.133276 0.129288 0.133146 0.133276 0.13654 0.133146 0.136413 0.129288 0.133146 0.129124 0.132997 0.133146 0.136413 0.132997 0.136269 0.13654 0.139293 0.136413 0.13916 0.139293 0.141596 0.13916 0.141452 0.136413 0.13916 0.136269 0.139012 0.13916 0.141452 0.139012 0.141295 0.105888 0.113059 0.105448 0.11272 0.113059 0.119248 0.11272 0.118982 0.105448 0.11272 0.105 0.112366 0.11272 0.118982 0.112366 0.118699 0.119248 0.12457 0.118982 0.124355 0.12457 0.129124 0.124355 0.128941 0.118982 0.124355 0.118699 0.124121 0.124355 0.128941 0.124121 0.128739 0.105 0.112366 0.104548 0.112 0.112366 0.118699 0.112 0.1184 0.104548 0.112 0.104097 0.111626 0.112 0.1184 0.111626 0.118088 0.118699 0.124121 0.1184 0.12387 0.124121 0.128739 0.12387 0.128521 0.1184 0.12387 0.118088 0.123605 0.12387 0.128521 0.123605 0.128289 0.129124 0.132997 0.128941 0.132831 0.132997 0.136269 0.132831 0.136109 0.128941 0.132831 0.128739 0.132648 0.132831 0.136109 0.132648 0.135935 0.136269 0.139012 0.136109 0.138851 0.139012 0.141295 0.138851 0.141128 0.136109 0.138851 0.135935 0.138678 0.138851 0.141128 0.138678 0.140949 0.128739 0.132648 0.128521 0.13245 0.132648 0.135935 0.13245 0.135747 0.128521 0.13245 0.128289 0.132238 0.13245 0.135747 0.132238 0.135545 0.135935 0.138678 0.135747 0.138492 0.138678 0.140949 0.138492 0.140759 0.135747 0.138492 0.135545 0.138294 0.138492 0.140759 0.138294 0.140559 0.142371 0.144577 0.142348 0.14451 0.144577 0.14644 0.14451 0.146332 0.142348 0.14451 0.142313 0.144435 0.14451 0.146332 0.144435 0.14622 0.14644 0.148001 0.146332 0.147857 0.148001 0.149299 0.147857 0.149122 0.146332 0.147857 0.14622 0.14771 0.147857 0.149122 0.14771 0.148944 0.142313 0.144435 0.142267 0.144351 0.144435 0.14622 0.144351 0.146102 0.142267 0.144351 0.142208 0.144259 0.144351 0.146102 0.144259 0.145977 0.14622 0.14771 0.146102 0.147559 0.14771 0.148944 0.147559 0.148765 0.146102 0.147559 0.145977 0.147405 0.147559 0.148765 0.147405 0.148582 0.149299 0.150369 0.149122 0.150164 0.150369 0.151246 0.150164 0.151017 0.149122 0.150164 0.148944 0.149959 0.150164 0.151017 0.149959 0.150788 0.151246 0.151959 0.151017 0.151708 0.151959 0.152534 0.151708 0.152266 0.151017 0.151708 0.150788 0.151459 0.151708 0.152266 0.151459 0.151999 0.148944 0.149959 0.148765 0.149754 0.149959 0.150788 0.149754 0.150559 0.148765 0.149754 0.148582 0.149547 0.149754 0.150559 0.149547 0.15033 0.150788 0.151459 0.150559 0.151211 0.151459 0.151999 0.151211 0.151734 0.150559 0.151211 0.15033 0.150963 0.151211 0.151734 0.150963 0.15147 0.142208 0.144259 0.142137 0.144158 0.144259 0.145977 0.144158 0.145846 0.142137 0.144158 0.142053 0.144047 0.144158 0.145846 0.144047 0.145709 0.145977 0.147405 0.145846 0.147246 0.147405 0.148582 0.147246 0.148398 0.145846 0.147246 0.145709 0.147082 0.147246 0.148398 0.147082 0.148209 0.142053 0.144047 0.141958 0.143927 0.144047 0.145709 0.143927 0.145564 0.141958 0.143927 0.141849 0.143797 0.143927 0.145564 0.143797 0.145411 0.145709 0.147082 0.145564 0.146913 0.147082 0.148209 0.146913 0.148018 0.145564 0.146913 0.145411 0.146739 0.146913 0.148018 0.146739 0.147822 0.148582 0.149547 0.148398 0.149338 0.149547 0.15033 0.149338 0.150101 0.148398 0.149338 0.148209 0.149128 0.149338 0.150101 0.149128 0.14987 0.15033 0.150963 0.150101 0.150715 0.150963 0.15147 0.150715 0.151206 0.150101 0.150715 0.14987 0.150467 0.150715 0.151206 0.150467 0.150942 0.148209 0.149128 0.148018 0.148915 0.149128 0.14987 0.148915 0.149638 0.148018 0.148915 0.147822 0.148699 0.148915 0.149638 0.148699 0.149405 0.14987 0.150467 0.149638 0.150218 0.150467 0.150942 0.150218 0.150678 0.149638 0.150218 0.149405 0.149968 0.150218 0.150678 0.149968 0.150414 0.152534 0.152995 0.152266 0.152712 0.152995 0.153361 0.152712 0.153067 0.152266 0.152712 0.151999 0.152431 0.152712 0.153067 0.152431 0.152774 0.153361 0.153651 0.153067 0.153346 0.153651 0.153878 0.153346 0.153566 0.153067 0.153346 0.152774 0.153044 0.153346 0.153566 0.153044 0.153255 0.151999 0.152431 0.151734 0.152152 0.152431 0.152774 0.152152 0.152483 0.151734 0.152152 0.15147 0.151873 0.152152 0.152483 0.151873 0.152193 0.152774 0.153044 0.152483 0.152743 0.153044 0.153255 0.152743 0.152946 0.152483 0.152743 0.152193 0.152443 0.152743 0.152946 0.152443 0.152639 0.153878 0.154054 0.153566 0.153736 0.154054 0.154191 0.153736 0.153868 0.153566 0.153736 0.153255 0.15342 0.153736 0.153868 0.15342 0.153546 0.154191 0.154296 0.153868 0.153969 0.154296 0.154375 0.153969 0.154046 0.153868 0.153969 0.153546 0.153644 0.153969 0.154046 0.153644 0.153718 0.153255 0.15342 0.152946 0.153104 0.15342 0.153546 0.153104 0.153226 0.152946 0.153104 0.152639 0.15279 0.153104 0.153226 0.15279 0.152907 0.153546 0.153644 0.153226 0.15332 0.153644 0.153718 0.15332 0.153391 0.153226 0.15332 0.152907 0.152996 0.15332 0.153391 0.152996 0.153064 0.15147 0.151873 0.151206 0.151596 0.151873 0.152193 0.151596 0.151903 0.151206 0.151596 0.150942 0.151319 0.151596 0.151903 0.151319 0.151615 0.152193 0.152443 0.151903 0.152144 0.152443 0.152639 0.152144 0.152332 0.151903 0.152144 0.151615 0.151847 0.152144 0.152332 0.151847 0.152026 0.150942 0.151319 0.150678 0.151042 0.151319 0.151615 0.151042 0.151327 0.150678 0.151042 0.150414 0.150765 0.151042 0.151327 0.150765 0.151039 0.151615 0.151847 0.151327 0.151549 0.151847 0.152026 0.151549 0.151721 0.151327 0.151549 0.151039 0.151252 0.151549 0.151721 0.151252 0.151416 0.152639 0.15279 0.152332 0.152477 0.15279 0.152907 0.152477 0.152589 0.152332 0.152477 0.152026 0.152165 0.152477 0.152589 0.152165 0.152271 0.152907 0.152996 0.152589 0.152674 0.152996 0.153064 0.152674 0.152738 0.152589 0.152674 0.152271 0.152352 0.152674 0.152738 0.152352 0.152413 0.152026 0.152165 0.151721 0.151853 0.152165 0.152271 0.151853 0.151954 0.151721 0.151853 0.151416 0.151542 0.151853 0.151954 0.151542 0.151638 0.152271 0.152352 0.151954 0.152031 0.152352 0.152413 0.152031 0.152089 0.151954 0.152031 0.151638 0.15171 0.152031 0.152089 0.15171 0.151765 0.141849 0.143797 0.141729 0.143658 0.143797 0.145411 0.143658 0.145252 0.141729 0.143658 0.141596 0.143509 0.143658 0.145252 0.143509 0.145084 0.145411 0.146739 0.145252 0.146559 0.146739 0.147822 0.146559 0.147622 0.145252 0.146559 0.145084 0.146372 0.146559 0.147622 0.146372 0.147417 0.141596 0.143509 0.141452 0.14335 0.143509 0.145084 0.14335 0.144909 0.141452 0.14335 0.141295 0.143181 0.14335 0.144909 0.143181 0.144726 0.145084 0.146372 0.144909 0.14618 0.146372 0.147417 0.14618 0.147208 0.144909 0.14618 0.144726 0.145981 0.14618 0.147208 0.145981 0.146993 0.147822 0.148699 0.147622 0.14848 0.148699 0.149405 0.14848 0.149169 0.147622 0.14848 0.147417 0.148258 0.14848 0.149169 0.148258 0.14893 0.149405 0.149968 0.149169 0.149716 0.149968 0.150414 0.149716 0.150148 0.149169 0.149716 0.14893 0.149463 0.149716 0.150148 0.149463 0.149882 0.147417 0.148258 0.147208 0.148033 0.148258 0.14893 0.148033 0.148689 0.147208 0.148033 0.146993 0.147803 0.148033 0.148689 0.147803 0.148445 0.14893 0.149463 0.148689 0.149208 0.149463 0.149882 0.149208 0.149614 0.148689 0.149208 0.148445 0.14895 0.149208 0.149614 0.14895 0.149344 0.141295 0.143181 0.141128 0.143003 0.143181 0.144726 0.143003 0.144535 0.141128 0.143003 0.140949 0.142815 0.143003 0.144535 0.142815 0.144336 0.144726 0.145981 0.144535 0.145776 0.145981 0.146993 0.145776 0.146774 0.144535 0.145776 0.144336 0.145564 0.145776 0.146774 0.145564 0.146549 0.140949 0.142815 0.140759 0.142618 0.142815 0.144336 0.142618 0.144129 0.140759 0.142618 0.140559 0.142412 0.142618 0.144129 0.142412 0.143914 0.144336 0.145564 0.144129 0.145346 0.145564 0.146549 0.145346 0.146318 0.144129 0.145346 0.143914 0.145121 0.145346 0.146318 0.145121 0.146082 0.146993 0.147803 0.146774 0.147569 0.147803 0.148445 0.147569 0.148198 0.146774 0.147569 0.146549 0.147331 0.147569 0.148198 0.147331 0.147947 0.148445 0.14895 0.148198 0.14869 0.14895 0.149344 0.14869 0.149073 0.148198 0.14869 0.147947 0.148427 0.14869 0.149073 0.148427 0.148799 0.146549 0.147331 0.146318 0.147088 0.147331 0.147947 0.147088 0.147692 0.146318 0.147088 0.146082 0.146841 0.147088 0.147692 0.146841 0.147434 0.147947 0.148427 0.147692 0.148162 0.148427 0.148799 0.148162 0.148524 0.147692 0.148162 0.147434 0.147893 0.148162 0.148524 0.147893 0.148245 0.150414 0.150765 0.150148 0.150487 0.150765 0.151039 0.150487 0.150751 0.150148 0.150487 0.149882 0.150209 0.150487 0.150751 0.150209 0.150463 0.151039 0.151252 0.150751 0.150955 0.151252 0.151416 0.150955 0.151112 0.150751 0.150955 0.150463 0.150658 0.150955 0.151112 0.150658 0.150807 0.149882 0.150209 0.149614 0.14993 0.150209 0.150463 0.14993 0.150174 0.149614 0.14993 0.149344 0.14965 0.14993 0.150174 0.14965 0.149884 0.150463 0.150658 0.150174 0.150361 0.150658 0.150807 0.150361 0.150503 0.150174 0.150361 0.149884 0.150063 0.150361 0.150503 0.150063 0.150198 0.151416 0.151542 0.151112 0.151231 0.151542 0.151638 0.151231 0.151322 0.151112 0.151231 0.150807 0.150921 0.151231 0.151322 0.150921 0.151006 0.151638 0.15171 0.151322 0.15139 0.15171 0.151765 0.15139 0.151441 0.151322 0.15139 0.151006 0.15107 0.15139 0.151441 0.15107 0.151118 0.150807 0.150921 0.150503 0.15061 0.150921 0.151006 0.15061 0.15069 0.150503 0.15061 0.150198 0.150299 0.15061 0.15069 0.150299 0.150375 0.151006 0.15107 0.15069 0.15075 0.15107 0.151118 0.15075 0.150795 0.15069 0.15075 0.150375 0.15043 0.15075 0.150795 0.15043 0.150471 0.149344 0.14965 0.149073 0.149368 0.14965 0.149884 0.149368 0.149593 0.149073 0.149368 0.148799 0.149085 0.149368 0.149593 0.149085 0.149301 0.149884 0.150063 0.149593 0.149764 0.150063 0.150198 0.149764 0.149893 0.149593 0.149764 0.149301 0.149465 0.149764 0.149893 0.149465 0.149587 0.148799 0.149085 0.148524 0.1488 0.149085 0.149301 0.1488 0.149008 0.148524 0.1488 0.148245 0.148513 0.1488 0.149008 0.148513 0.148713 0.149301 0.149465 0.149008 0.149164 0.149465 0.149587 0.149164 0.14928 0.149008 0.149164 0.148713 0.148863 0.149164 0.14928 0.148863 0.148972 0.150198 0.150299 0.149893 0.149988 0.150299 0.150375 0.149988 0.150059 0.149893 0.149988 0.149587 0.149677 0.149988 0.150059 0.149677 0.149743 0.150375 0.15043 0.150059 0.15011 0.15043 0.150471 0.15011 0.150148 0.150059 0.15011 0.149743 0.14979 0.15011 0.150148 0.14979 0.149825 0.149587 0.149677 0.14928 0.149365 0.149677 0.149743 0.149365 0.149426 0.14928 0.149365 0.148972 0.149052 0.149365 0.149426 0.149052 0.149109 0.149743 0.14979 0.149426 0.14947 0.14979 0.149825 0.14947 0.149501 0.149426 0.14947 0.149109 0.149149 0.14947 0.149501 0.149149 0.149178 0 0.0162691 0 0.0161191 0.0162691 0.0318669 0.0161191 0.031565 0 0.0161191 0 0.0159913 0.0161191 0.031565 0.0159913 0.031306 0.0318669 0.0468205 0.031565 0.0463726 0.0468205 0.0609039 0.0463726 0.0603474 0.031565 0.0463726 0.031306 0.0459818 0.0463726 0.0603474 0.0459818 0.059851 0 0.0159913 0 0.0158813 0.0159913 0.031306 0.0158813 0.0310818 0 0.0158813 0 0.0157857 0.0158813 0.0310818 0.0157857 0.0308863 0.031306 0.0459818 0.0310818 0.0456387 0.0459818 0.059851 0.0456387 0.0594066 0.0310818 0.0456387 0.0308863 0.0453357 0.0456387 0.0594066 0.0453357 0.0590074 0.0609039 0.0737993 0.0603474 0.0731987 0.0737993 0.0852962 0.0731987 0.0847155 0.0603474 0.0731987 0.059851 0.0726493 0.0731987 0.0847155 0.0726493 0.08417 0.0852962 0.0953649 0.0847155 0.094844 0.0953649 0.104097 0.094844 0.103649 0.0847155 0.094844 0.08417 0.0943419 0.094844 0.103649 0.0943419 0.103207 0.059851 0.0726493 0.0594066 0.0721462 0.0726493 0.08417 0.0721462 0.0836584 0.0594066 0.0721462 0.0590074 0.0716851 0.0721462 0.0836584 0.0716851 0.0831789 0.08417 0.0943419 0.0836584 0.0938596 0.0943419 0.103207 0.0938596 0.102773 0.0836584 0.0938596 0.0831789 0.0933976 0.0938596 0.102773 0.0933976 0.102349 0 0.0157857 0 0.0157019 0.0157857 0.0308863 0.0157019 0.0307142 0 0.0157019 0 0.0156276 0.0157019 0.0307142 0.0156276 0.0305613 0.0308863 0.0453357 0.0307142 0.0450664 0.0453357 0.0590074 0.0450664 0.0586475 0.0307142 0.0450664 0.0305613 0.0448256 0.0450664 0.0586475 0.0448256 0.0583216 0 0.0156276 0 0.0155612 0.0156276 0.0305613 0.0155612 0.030424