# vtk DataFile Version 3.0
#This file was generated by the deal.II library on 2022/1/6 at 23:02:59
ASCII
DATASET UNSTRUCTURED_GRID

POINTS 16384 double
0 0 0
0.1875 0 0
0 0.046875 0
0.1875 0.046875 0
0.1875 0 0
0.375 0 0
0.1875 0.046875 0
0.375 0.046875 0
0 0.046875 0
0.1875 0.046875 0
0 0.09375 0
0.1875 0.09375 0
0.1875 0.046875 0
0.375 0.046875 0
0.1875 0.09375 0
0.375 0.09375 0
0.375 0 0
0.5625 0 0
0.375 0.046875 0
0.5625 0.046875 0
0.5625 0 0
0.75 0 0
0.5625 0.046875 0
0.75 0.046875 0
0.375 0.046875 0
0.5625 0.046875 0
0.375 0.09375 0
0.5625 0.09375 0
0.5625 0.046875 0
0.75 0.046875 0
0.5625 0.09375 0
0.75 0.09375 0
0 0.09375 0
0.1875 0.09375 0
0 0.140625 0
0.1875 0.140625 0
0.1875 0.09375 0
0.375 0.09375 0
0.1875 0.140625 0
0.375 0.140625 0
0 0.140625 0
0.1875 0.140625 0
0 0.1875 0
0.1875 0.1875 0
0.1875 0.140625 0
0.375 0.140625 0
0.1875 0.1875 0
0.375 0.1875 0
0.375 0.09375 0
0.5625 0.09375 0
0.375 0.140625 0
0.5625 0.140625 0
0.5625 0.09375 0
0.75 0.09375 0
0.5625 0.140625 0
0.75 0.140625 0
0.375 0.140625 0
0.5625 0.140625 0
0.375 0.1875 0
0.5625 0.1875 0
0.5625 0.140625 0
0.75 0.140625 0
0.5625 0.1875 0
0.75 0.1875 0
0.75 0 0
0.9375 0 0
0.75 0.046875 0
0.9375 0.046875 0
0.9375 0 0
1.125 0 0
0.9375 0.046875 0
1.125 0.046875 0
0.75 0.046875 0
0.9375 0.046875 0
0.75 0.09375 0
0.9375 0.09375 0
0.9375 0.046875 0
1.125 0.046875 0
0.9375 0.09375 0
1.125 0.09375 0
1.125 0 0
1.3125 0 0
1.125 0.046875 0
1.3125 0.046875 0
1.3125 0 0
1.5 0 0
1.3125 0.046875 0
1.5 0.046875 0
1.125 0.046875 0
1.3125 0.046875 0
1.125 0.09375 0
1.3125 0.09375 0
1.3125 0.046875 0
1.5 0.046875 0
1.3125 0.09375 0
1.5 0.09375 0
0.75 0.09375 0
0.9375 0.09375 0
0.75 0.140625 0
0.9375 0.140625 0
0.9375 0.09375 0
1.125 0.09375 0
0.9375 0.140625 0
1.125 0.140625 0
0.75 0.140625 0
0.9375 0.140625 0
0.75 0.1875 0
0.9375 0.1875 0
0.9375 0.140625 0
1.125 0.140625 0
0.9375 0.1875 0
1.125 0.1875 0
1.125 0.09375 0
1.3125 0.09375 0
1.125 0.140625 0
1.3125 0.140625 0
1.3125 0.09375 0
1.5 0.09375 0
1.3125 0.140625 0
1.5 0.140625 0
1.125 0.140625 0
1.3125 0.140625 0
1.125 0.1875 0
1.3125 0.1875 0
1.3125 0.140625 0
1.5 0.140625 0
1.3125 0.1875 0
1.5 0.1875 0
0 0.1875 0
0.1875 0.1875 0
0 0.234375 0
0.1875 0.234375 0
0.1875 0.1875 0
0.375 0.1875 0
0.1875 0.234375 0
0.375 0.234375 0
0 0.234375 0
0.1875 0.234375 0
0 0.28125 0
0.1875 0.28125 0
0.1875 0.234375 0
0.375 0.234375 0
0.1875 0.28125 0
0.375 0.28125 0
0.375 0.1875 0
0.5625 0.1875 0
0.375 0.234375 0
0.5625 0.234375 0
0.5625 0.1875 0
0.75 0.1875 0
0.5625 0.234375 0
0.75 0.234375 0
0.375 0.234375 0
0.5625 0.234375 0
0.375 0.28125 0
0.5625 0.28125 0
0.5625 0.234375 0
0.75 0.234375 0
0.5625 0.28125 0
0.75 0.28125 0
0 0.28125 0
0.1875 0.28125 0
0 0.328125 0
0.1875 0.328125 0
0.1875 0.28125 0
0.375 0.28125 0
0.1875 0.328125 0
0.375 0.328125 0
0 0.328125 0
0.1875 0.328125 0
0 0.375 0
0.1875 0.375 0
0.1875 0.328125 0
0.375 0.328125 0
0.1875 0.375 0
0.375 0.375 0
0.375 0.28125 0
0.5625 0.28125 0
0.375 0.328125 0
0.5625 0.328125 0
0.5625 0.28125 0
0.75 0.28125 0
0.5625 0.328125 0
0.75 0.328125 0
0.375 0.328125 0
0.5625 0.328125 0
0.375 0.375 0
0.5625 0.375 0
0.5625 0.328125 0
0.75 0.328125 0
0.5625 0.375 0
0.75 0.375 0
0.75 0.1875 0
0.9375 0.1875 0
0.75 0.234375 0
0.9375 0.234375 0
0.9375 0.1875 0
1.125 0.1875 0
0.9375 0.234375 0
1.125 0.234375 0
0.75 0.234375 0
0.9375 0.234375 0
0.75 0.28125 0
0.9375 0.28125 0
0.9375 0.234375 0
1.125 0.234375 0
0.9375 0.28125 0
1.125 0.28125 0
1.125 0.1875 0
1.3125 0.1875 0
1.125 0.234375 0
1.3125 0.234375 0
1.3125 0.1875 0
1.5 0.1875 0
1.3125 0.234375 0
1.5 0.234375 0
1.125 0.234375 0
1.3125 0.234375 0
1.125 0.28125 0
1.3125 0.28125 0
1.3125 0.234375 0
1.5 0.234375 0
1.3125 0.28125 0
1.5 0.28125 0
0.75 0.28125 0
0.9375 0.28125 0
0.75 0.328125 0
0.9375 0.328125 0
0.9375 0.28125 0
1.125 0.28125 0
0.9375 0.328125 0
1.125 0.328125 0
0.75 0.328125 0
0.9375 0.328125 0
0.75 0.375 0
0.9375 0.375 0
0.9375 0.328125 0
1.125 0.328125 0
0.9375 0.375 0
1.125 0.375 0
1.125 0.28125 0
1.3125 0.28125 0
1.125 0.328125 0
1.3125 0.328125 0
1.3125 0.28125 0
1.5 0.28125 0
1.3125 0.328125 0
1.5 0.328125 0
1.125 0.328125 0
1.3125 0.328125 0
1.125 0.375 0
1.3125 0.375 0
1.3125 0.328125 0
1.5 0.328125 0
1.3125 0.375 0
1.5 0.375 0
1.5 0 0
1.6875 0 0
1.5 0.046875 0
1.6875 0.046875 0
1.6875 0 0
1.875 0 0
1.6875 0.046875 0
1.875 0.046875 0
1.5 0.046875 0
1.6875 0.046875 0
1.5 0.09375 0
1.6875 0.09375 0
1.6875 0.046875 0
1.875 0.046875 0
1.6875 0.09375 0
1.875 0.09375 0
1.875 0 0
2.0625 0 0
1.875 0.046875 0
2.0625 0.046875 0
2.0625 0 0
2.25 0 0
2.0625 0.046875 0
2.25 0.046875 0
1.875 0.046875 0
2.0625 0.046875 0
1.875 0.09375 0
2.0625 0.09375 0
2.0625 0.046875 0
2.25 0.046875 0
2.0625 0.09375 0
2.25 0.09375 0
1.5 0.09375 0
1.6875 0.09375 0
1.5 0.140625 0
1.6875 0.140625 0
1.6875 0.09375 0
1.875 0.09375 0
1.6875 0.140625 0
1.875 0.140625 0
1.5 0.140625 0
1.6875 0.140625 0
1.5 0.1875 0
1.6875 0.1875 0
1.6875 0.140625 0
1.875 0.140625 0
1.6875 0.1875 0
1.875 0.1875 0
1.875 0.09375 0
2.0625 0.09375 0
1.875 0.140625 0
2.0625 0.140625 0
2.0625 0.09375 0
2.25 0.09375 0
2.0625 0.140625 0
2.25 0.140625 0
1.875 0.140625 0
2.0625 0.140625 0
1.875 0.1875 0
2.0625 0.1875 0
2.0625 0.140625 0
2.25 0.140625 0
2.0625 0.1875 0
2.25 0.1875 0
2.25 0 0
2.4375 0 0
2.25 0.046875 0
2.4375 0.046875 0
2.4375 0 0
2.625 0 0
2.4375 0.046875 0
2.625 0.046875 0
2.25 0.046875 0
2.4375 0.046875 0
2.25 0.09375 0
2.4375 0.09375 0
2.4375 0.046875 0
2.625 0.046875 0
2.4375 0.09375 0
2.625 0.09375 0
2.625 0 0
2.8125 0 0
2.625 0.046875 0
2.8125 0.046875 0
2.8125 0 0
3 0 0
2.8125 0.046875 0
3 0.046875 0
2.625 0.046875 0
2.8125 0.046875 0
2.625 0.09375 0
2.8125 0.09375 0
2.8125 0.046875 0
3 0.046875 0
2.8125 0.09375 0
3 0.09375 0
2.25 0.09375 0
2.4375 0.09375 0
2.25 0.140625 0
2.4375 0.140625 0
2.4375 0.09375 0
2.625 0.09375 0
2.4375 0.140625 0
2.625 0.140625 0
2.25 0.140625 0
2.4375 0.140625 0
2.25 0.1875 0
2.4375 0.1875 0
2.4375 0.140625 0
2.625 0.140625 0
2.4375 0.1875 0
2.625 0.1875 0
2.625 0.09375 0
2.8125 0.09375 0
2.625 0.140625 0
2.8125 0.140625 0
2.8125 0.09375 0
3 0.09375 0
2.8125 0.140625 0
3 0.140625 0
2.625 0.140625 0
2.8125 0.140625 0
2.625 0.1875 0
2.8125 0.1875 0
2.8125 0.140625 0
3 0.140625 0
2.8125 0.1875 0
3 0.1875 0
1.5 0.1875 0
1.6875 0.1875 0
1.5 0.234375 0
1.6875 0.234375 0
1.6875 0.1875 0
1.875 0.1875 0
1.6875 0.234375 0
1.875 0.234375 0
1.5 0.234375 0
1.6875 0.234375 0
1.5 0.28125 0
1.6875 0.28125 0
1.6875 0.234375 0
1.875 0.234375 0
1.6875 0.28125 0
1.875 0.28125 0
1.875 0.1875 0
2.0625 0.1875 0
1.875 0.234375 0
2.0625 0.234375 0
2.0625 0.1875 0
2.25 0.1875 0
2.0625 0.234375 0
2.25 0.234375 0
1.875 0.234375 0
2.0625 0.234375 0
1.875 0.28125 0
2.0625 0.28125 0
2.0625 0.234375 0
2.25 0.234375 0
2.0625 0.28125 0
2.25 0.28125 0
1.5 0.28125 0
1.6875 0.28125 0
1.5 0.328125 0
1.6875 0.328125 0
1.6875 0.28125 0
1.875 0.28125 0
1.6875 0.328125 0
1.875 0.328125 0
1.5 0.328125 0
1.6875 0.328125 0
1.5 0.375 0
1.6875 0.375 0
1.6875 0.328125 0
1.875 0.328125 0
1.6875 0.375 0
1.875 0.375 0
1.875 0.28125 0
2.0625 0.28125 0
1.875 0.328125 0
2.0625 0.328125 0
2.0625 0.28125 0
2.25 0.28125 0
2.0625 0.328125 0
2.25 0.328125 0
1.875 0.328125 0
2.0625 0.328125 0
1.875 0.375 0
2.0625 0.375 0
2.0625 0.328125 0
2.25 0.328125 0
2.0625 0.375 0
2.25 0.375 0
2.25 0.1875 0
2.4375 0.1875 0
2.25 0.234375 0
2.4375 0.234375 0
2.4375 0.1875 0
2.625 0.1875 0
2.4375 0.234375 0
2.625 0.234375 0
2.25 0.234375 0
2.4375 0.234375 0
2.25 0.28125 0
2.4375 0.28125 0
2.4375 0.234375 0
2.625 0.234375 0
2.4375 0.28125 0
2.625 0.28125 0
2.625 0.1875 0
2.8125 0.1875 0
2.625 0.234375 0
2.8125 0.234375 0
2.8125 0.1875 0
3 0.1875 0
2.8125 0.234375 0
3 0.234375 0
2.625 0.234375 0
2.8125 0.234375 0
2.625 0.28125 0
2.8125 0.28125 0
2.8125 0.234375 0
3 0.234375 0
2.8125 0.28125 0
3 0.28125 0
2.25 0.28125 0
2.4375 0.28125 0
2.25 0.328125 0
2.4375 0.328125 0
2.4375 0.28125 0
2.625 0.28125 0
2.4375 0.328125 0
2.625 0.328125 0
2.25 0.328125 0
2.4375 0.328125 0
2.25 0.375 0
2.4375 0.375 0
2.4375 0.328125 0
2.625 0.328125 0
2.4375 0.375 0
2.625 0.375 0
2.625 0.28125 0
2.8125 0.28125 0
2.625 0.328125 0
2.8125 0.328125 0
2.8125 0.28125 0
3 0.28125 0
2.8125 0.328125 0
3 0.328125 0
2.625 0.328125 0
2.8125 0.328125 0
2.625 0.375 0
2.8125 0.375 0
2.8125 0.328125 0
3 0.328125 0
2.8125 0.375 0
3 0.375 0
0 0.375 0
0.1875 0.375 0
0 0.421875 0
0.1875 0.421875 0
0.1875 0.375 0
0.375 0.375 0
0.1875 0.421875 0
0.375 0.421875 0
0 0.421875 0
0.1875 0.421875 0
0 0.46875 0
0.1875 0.46875 0
0.1875 0.421875 0
0.375 0.421875 0
0.1875 0.46875 0
0.375 0.46875 0
0.375 0.375 0
0.5625 0.375 0
0.375 0.421875 0
0.5625 0.421875 0
0.5625 0.375 0
0.75 0.375 0
0.5625 0.421875 0
0.75 0.421875 0
0.375 0.421875 0
0.5625 0.421875 0
0.375 0.46875 0
0.5625 0.46875 0
0.5625 0.421875 0
0.75 0.421875 0
0.5625 0.46875 0
0.75 0.46875 0
0 0.46875 0
0.1875 0.46875 0
0 0.515625 0
0.1875 0.515625 0
0.1875 0.46875 0
0.375 0.46875 0
0.1875 0.515625 0
0.375 0.515625 0
0 0.515625 0
0.1875 0.515625 0
0 0.5625 0
0.1875 0.5625 0
0.1875 0.515625 0
0.375 0.515625 0
0.1875 0.5625 0
0.375 0.5625 0
0.375 0.46875 0
0.5625 0.46875 0
0.375 0.515625 0
0.5625 0.515625 0
0.5625 0.46875 0
0.75 0.46875 0
0.5625 0.515625 0
0.75 0.515625 0
0.375 0.515625 0
0.5625 0.515625 0
0.375 0.5625 0
0.5625 0.5625 0
0.5625 0.515625 0
0.75 0.515625 0
0.5625 0.5625 0
0.75 0.5625 0
0.75 0.375 0
0.9375 0.375 0
0.75 0.421875 0
0.9375 0.421875 0
0.9375 0.375 0
1.125 0.375 0
0.9375 0.421875 0
1.125 0.421875 0
0.75 0.421875 0
0.9375 0.421875 0
0.75 0.46875 0
0.9375 0.46875 0
0.9375 0.421875 0
1.125 0.421875 0
0.9375 0.46875 0
1.125 0.46875 0
1.125 0.375 0
1.3125 0.375 0
1.125 0.421875 0
1.3125 0.421875 0
1.3125 0.375 0
1.5 0.375 0
1.3125 0.421875 0
1.5 0.421875 0
1.125 0.421875 0
1.3125 0.421875 0
1.125 0.46875 0
1.3125 0.46875 0
1.3125 0.421875 0
1.5 0.421875 0
1.3125 0.46875 0
1.5 0.46875 0
0.75 0.46875 0
0.9375 0.46875 0
0.75 0.515625 0
0.9375 0.515625 0
0.9375 0.46875 0
1.125 0.46875 0
0.9375 0.515625 0
1.125 0.515625 0
0.75 0.515625 0
0.9375 0.515625 0
[...]
POINT_DATA 16384
SCALARS x_displacement double 1
LOOKUP_TABLE default
0 0.033961 0 0.0303224 0.033961 0.0599927 0.0303224 0.0582486 0 0.0303224 0 0.0278284 0.0303224 0.0582486 0.0278284 0.055414 0.0599927 0.0765487 0.0582486 0.0751685 0.0765487 0.0834614 0.0751685 0.0825801 0.0582486 0.0751685 0.055414 0.0731117 0.0751685 0.0825801 0.0731117 0.0812647 0 0.0278284 0 0.0257873 0.0278284 0.055414 0.0257873 0.0517971 0 0.0257873 0 0.0240778 0.0257873 0.0517971 0.0240778 0.0481346 0.055414 0.0731117 0.0517971 0.0702749 0.0731117 0.0812647 0.0702749 0.079553 0.0517971 0.0702749 0.0481346 0.0665099 0.0702749 0.079553 0.0665099 0.077576 0.0834614 0.0900834 0.0825801 0.0896725 0.0900834 0.097369 0.0896725 0.0973097 0.0825801 0.0896725 0.0812647 0.0890304 0.0896725 0.0973097 0.0890304 0.0970733 0.097369 0.104834 0.0973097 0.104931 0.104834 0.112086 0.104931 0.112262 0.0973097 0.104931 0.0970733 0.104904 0.104931 0.112262 0.104904 0.112343 0.0812647 0.0890304 0.079553 0.0881971 0.0890304 0.0970733 0.0881971 0.0966878 0.079553 0.0881971 0.077576 0.0872193 0.0881971 0.0966878 0.0872193 0.0961747 0.0970733 0.104904 0.0966878 0.104762 0.104904 0.112343 0.104762 0.112336 0.0966878 0.104762 0.0961747 0.10452 0.104762 0.112336 0.10452 0.112248 0 0.0240778 0 0.0226338 0.0240778 0.0481346 0.0226338 0.0447147 0 0.0226338 0 0.0213674 0.0226338 0.0447147 0.0213674 0.0420021 0.0481346 0.0665099 0.0447147 0.0626965 0.0665099 0.077576 0.0626965 0.0755687 0.0447147 0.0626965 0.0420021 0.0596385 0.0626965 0.0755687 0.0596385 0.0735663 0 0.0213674 0 0.0203014 0.0213674 0.0420021 0.0203014 0.039849 0 0.0203014 0 0.0194237 0.0203014 0.039849 0.0194237 0.0381318 0.0420021 0.0596385 0.039849 0.0571905 0.0596385 0.0735663 0.0571905 0.0716955 0.039849 0.0571905 0.0381318 0.0551895 0.0571905 0.0716955 0.0551895 0.0700044 0.077576 0.0872193 0.0755687 0.0861194 0.0872193 0.0961747 0.0861194 0.0955616 0.0755687 0.0861194 0.0735663 0.0849543 0.0861194 0.0955616 0.0849543 0.0948697 0.0961747 0.10452 0.0955616 0.10419 0.10452 0.112248 0.10419 0.112088 0.0955616 0.10419 0.0948697 0.103787 0.10419 0.112088 0.103787 0.111863 0.0735663 0.0849543 0.0716955 0.0837568 0.0849543 0.0948697 0.0837568 0.094123 0.0716955 0.0837568 0.0700044 0.082568 0.0837568 0.094123 0.082568 0.0933405 0.0948697 0.103787 0.094123 0.103324 0.103787 0.111863 0.103324 0.111583 0.094123 0.103324 0.0933405 0.102815 0.103324 0.111583 0.102815 0.111255 0.112086 0.118945 0.112262 0.119154 0.118945 0.125319 0.119154 0.125532 0.112262 0.119154 0.112343 0.119288 0.119154 0.125532 0.119288 0.125686 0.125319 0.131167 0.125532 0.131364 0.131167 0.136473 0.131364 0.136642 0.125532 0.131364 0.125686 0.131514 0.131364 0.136642 0.131514 0.136773 0.112343 0.119288 0.112336 0.119353 0.119288 0.125686 0.119353 0.125782 0.112336 0.119353 0.112248 0.119352 0.119353 0.125782 0.119352 0.125826 0.125686 0.131514 0.125782 0.131618 0.131514 0.136773 0.131618 0.136867 0.125782 0.131618 0.125826 0.131678 0.131618 0.136867 0.131678 0.136925 0.136473 0.141242 0.136642 0.141374 0.141242 0.145489 0.141374 0.145582 0.136642 0.141374 0.136773 0.141477 0.141374 0.145582 0.141477 0.145651 0.145489 0.149243 0.145582 0.149293 0.149243 0.152533 0.149293 0.152541 0.145582 0.149293 0.145651 0.149325 0.149293 0.152541 0.149325 0.152535 0.136773 0.141477 0.136867 0.14155 0.141477 0.145651 0.14155 0.145696 0.136867 0.14155 0.136925 0.141595 0.14155 0.145696 0.141595 0.145718 0.145651 0.149325 0.145696 0.149338 0.149325 0.152535 0.149338 0.152515 0.145696 0.149338 0.145718 0.149333 0.149338 0.152515 0.149333 0.15248 0.112248 0.119352 0.112088 0.11929 0.119352 0.125826 0.11929 0.125819 0.112088 0.11929 0.111863 0.119174 0.11929 0.125819 0.119174 0.125767 0.125826 0.131678 0.125819 0.131697 0.131678 0.136925 0.131697 0.13695 0.125819 0.131697 0.125767 0.131677 0.131697 0.13695 0.131677 0.136942 0.111863 0.119174 0.111583 0.119009 0.119174 0.125767 0.119009 0.125671 0.111583 0.119009 0.111255 0.1188 0.119009 0.125671 0.1188 0.125537 0.125767 0.131677 0.125671 0.131621 0.131677 0.136942 0.131621 0.136904 0.125671 0.131621 0.125537 0.131531 0.131621 0.136904 0.131531 0.136836 0.136925 0.141595 0.13695 0.141611 0.141595 0.145718 0.141611 0.145718 0.13695 0.141611 0.136942 0.141601 0.141611 0.145718 0.141601 0.145696 0.145718 0.149333 0.145718 0.149311 0.149333 0.15248 0.149311 0.152432 0.145718 0.149311 0.145696 0.14927 0.149311 0.152432 0.14927 0.152369 0.136942 0.141601 0.136904 0.141566 0.141601 0.145696 0.141566 0.145653 0.136904 0.141566 0.136836 0.141505 0.141566 0.145653 0.141505 0.145589 0.145696 0.14927 0.145653 0.149212 0.14927 0.152369 0.149212 0.152291 0.145653 0.149212 0.145589 0.149137 0.149212 0.152291 0.149137 0.1522 0 0.0194237 0 0.0187091 0.0194237 0.0381318 0.0187091 0.0367532 0 0.0187091 0 0.0181294 0.0187091 0.0367532 0.0181294 0.0356388 0.0381318 0.0551895 0.0367532 0.0535338 0.0551895 0.0700044 0.0535338 0.0684968 0.0367532 0.0535338 0.0356388 0.0521526 0.0535338 0.0684968 0.0521526 0.0671614 0 0.0181294 0 0.0176588 0.0181294 0.0356388 0.0176588 0.0347318 0 0.0176588 0 0.0172753 0.0176588 0.0347318 0.0172753 0.0339885 0.0356388 0.0521526 0.0347318 0.0509928 0.0521526 0.0671614 0.0509928 0.0659819 0.0347318 0.0509928 0.0339885 0.0500134 0.0509928 0.0659819 0.0500134 0.0649413 0.0700044 0.082568 0.0684968 0.0814198 0.082568 0.0933405 0.0814198 0.0925405 0.0684968 0.0814198 0.0671614 0.0803319 0.0814198 0.0925405 0.0803319 0.0917395 0.0933405 0.102815 0.0925405 0.10227 0.102815 0.111255 0.10227 0.110887 0.0925405 0.10227 0.0917395 0.101702 0.10227 0.110887 0.101702 0.110489 0.0671614 0.0803319 0.0659819 0.0793144 0.0803319 0.0917395 0.0793144 0.0909509 0.0659819 0.0793144 0.0649413 0.078371 0.0793144 0.0909509 0.078371 0.0901849 0.0917395 0.101702 0.0909509 0.10112 0.101702 0.110489 0.10112 0.110065 0.0909509 0.10112 0.0901849 0.100532 0.10112 0.110065 0.100532 0.109623 0 0.0172753 0 0.016961 0.0172753 0.0339885 0.016961 0.0333751 0 0.016961 0 0.0167018 0.016961 0.0333751 0.0167018 0.0328651 0.0339885 0.0500134 0.0333751 0.0491821 0.0500134 0.0649413 0.0491821 0.0640231 0.0333751 0.0491821 0.0328651 0.0484727 0.0491821 0.0640231 0.0484727 0.063212 0 0.0167018 0 0.0164864 0.0167018 0.0328651 0.0164864 0.0324379 0 0.0164864 0 0.0163059 0.0164864 0.0324379 0.0163059 0.0320772 0.0328651 0.0484727 0.0324379 0.0478641 0.0484727 0.063212 0.0478641 0.0624944 0.0324379 0.0478641 0.0320772 0.0473392 0.0478641 0.0624944 0.0473392 0.061858 0.0649413 0.078371 0.0640231 0.0775015 0.078371 0.0901849 0.0775015 0.0894484 0.0640231 0.0775015 0.063212 0.0767033 0.0775015 0.0894484 0.0767033 0.0887458 0.0901849 0.100532 0.0894484 0.0999463 0.100532 0.109623 0.0999463 0.10917 0.0894484 0.0999463 0.0887458 0.0993683 0.0999463 0.10917 0.0993683 0.108709 0.063212 0.0767033 0.0624944 0.0759723 0.0767033 0.0887458 0.0759723 0.0880797 0.0624944 0.0759723 0.061858 0.0753037 0.0759723 0.0880797 0.0753037 0.0874509 0.0887458 0.0993683 0.0880797 0.0988027 0.0993683 0.108709 0.0988027 0.108246 0.0880797 0.0988027 0.0874509 0.098253 0.0988027 0.108246 0.098253 0.107784 0.111255 0.1188 0.110887 0.118552 0.1188 0.125537 0.118552 0.125368 0.110887 0.118552 0.110489 0.118272 0.118552 0.125368 0.118272 0.125167 0.125537 0.131531 0.125368 0.13141 0.131531 0.136836 0.13141 0.136742 0.125368 0.13141 0.125167 0.13126 0.13141 0.136742 0.13126 0.136622 0.110489 0.118272 0.110065 0.117963 0.118272 0.125167 0.117963 0.124939 0.110065 0.117963 0.109623 0.117632 0.117963 0.124939 0.117632 0.124686 0.125167 0.13126 0.124939 0.131085 0.13126 0.136622 0.131085 0.136479 0.124939 0.131085 0.124686 0.130886 0.131085 0.136479 0.130886 0.136315 0.136836 0.141505 0.136742 0.141422 0.141505 0.145589 0.141422 0.145505 0.136742 0.141422 0.136622 0.141317 0.141422 0.145505 0.141317 0.145403 0.145589 0.149137 0.145505 0.149046 0.149137 0.1522 0.149046 0.152096 0.145505 0.149046 0.145403 0.148938 0.149046 0.152096 0.148938 0.151978 0.136622 0.141317 0.136479 0.141191 0.141317 0.145403 0.141191 0.145282 0.136479 0.141191 0.136315 0.141045 0.141191 0.145282 0.141045 0.145145 0.145403 0.148938 0.145282 0.148815 0.148938 0.151978 0.148815 0.151846 0.145282 0.148815 0.145145 0.148677 0.148815 0.151846 0.148677 0.151702 0.109623 0.117632 0.10917 0.117282 0.117632 0.124686 0.117282 0.124413 0.10917 0.117282 0.108709 0.116918 0.117282 0.124413 0.116918 0.124122 0.124686 0.130886 0.124413 0.130667 0.130886 0.136315 0.130667 0.13613 0.124413 0.130667 0.124122 0.130428 0.130667 0.13613 0.130428 0.135928 0.108709 0.116918 0.108246 0.116543 0.116918 0.124122 0.116543 0.123816 0.108246 0.116543 0.107784 0.11616 0.116543 0.123816 0.11616 0.123499 0.124122 0.130428 0.123816 0.130174 0.130428 0.135928 0.130174 0.135709 0.123816 0.130174 0.123499 0.129906 0.130174 0.135709 0.129906 0.135476 0.136315 0.141045 0.13613 0.140881 0.141045 0.145145 0.140881 0.144991 0.13613 0.140881 0.135928 0.140701 0.140881 0.144991 0.140701 0.144822 0.145145 0.148677 0.144991 0.148525 0.148677 0.151702 0.148525 0.151545 0.144991 0.148525 0.144822 0.148359 0.148525 0.151545 0.148359 0.151377 0.135928 0.140701 0.135709 0.140505 0.140701 0.144822 0.140505 0.144638 0.135709 0.140505 0.135476 0.140294 0.140505 0.144638 0.140294 0.144441 0.144822 0.148359 0.144638 0.14818 0.148359 0.151377 0.14818 0.151196 0.144638 0.14818 0.144441 0.147988 0.14818 0.151196 0.147988 0.151004 0.152533 0.155395 0.152541 0.155362 0.155395 0.157867 0.155362 0.157796 0.152541 0.155362 0.152535 0.155319 0.155362 0.157796 0.155319 0.157717 0.157867 0.159987 0.157796 0.15988 0.159987 0.161793 0.15988 0.161653 0.157796 0.15988 0.157717 0.159768 0.15988 0.161653 0.159768 0.16151 0.152535 0.155319 0.152515 0.155265 0.155319 0.157717 0.155265 0.15763 0.152515 0.155265 0.15248 0.1552 0.155265 0.15763 0.1552 0.157535 0.157717 0.159768 0.15763 0.15965 0.159768 0.16151 0.15965 0.161363 0.15763 0.15965 0.157535 0.159526 0.15965 0.161363 0.159526 0.161211 0.161793 0.163321 0.161653 0.163151 0.163321 0.164604 0.163151 0.164409 0.161653 0.163151 0.16151 0.16298 0.163151 0.164409 0.16298 0.164213 0.164604 0.165676 0.164409 0.165458 0.165676 0.166566 0.165458 0.166327 0.164409 0.165458 0.164213 0.165239 0.165458 0.166327 0.165239 0.166089 0.16151 0.16298 0.161363 0.162806 0.16298 0.164213 0.162806 0.164015 0.161363 0.162806 0.161211 0.16263 0.162806 0.164015 0.16263 0.163815 0.164213 0.165239 0.164015 0.16502 0.165239 0.166089 0.16502 0.165851 0.164015 0.16502 0.163815 0.1648 0.16502 0.165851 0.1648 0.165612 0.15248 0.1552 0.152432 0.155124 0.1552 0.157535 0.155124 0.157431 0.152432 0.155124 0.152369 0.155037 0.155124 0.157431 0.155037 0.157319 0.157535 0.159526 0.157431 0.159395 0.159526 0.161211 0.159395 0.161055 0.157431 0.159395 0.157319 0.159257 0.159395 0.161055 0.159257 0.160894 0.152369 0.155037 0.152291 0.154938 0.155037 0.157319 0.154938 0.157197 0.152291 0.154938 0.1522 0.154828 0.154938 0.157197 0.154828 0.157066 0.157319 0.159257 0.157197 0.159113 0.159257 0.160894 0.159113 0.160727 0.157197 0.159113 0.157066 0.158961 0.159113 0.160727 0.158961 0.160554 0.161211 0.16263 0.161055 0.162449 0.16263 0.163815 0.162449 0.163613 0.161055 0.162449 0.160894 0.162266 0.162449 0.163613 0.162266 0.163408 0.163815 0.1648 0.163613 0.164578 0.1648 0.165612 0.164578 0.165373 0.163613 0.164578 0.163408 0.164354 0.164578 0.165373 0.164354 0.165132 0.160894 0.162266 0.160727 0.162078 0.162266 0.163408 0.162078 0.163201 0.160727 0.162078 0.160554 0.161885 0.162078 0.163201 0.161885 0.16299 0.163408 0.164354 0.163201 0.164129 0.164354 0.165132 0.164129 0.164891 0.163201 0.164129 0.16299 0.163901 0.164129 0.164891 0.163901 0.164647 0.166566 0.167299 0.166327 0.167043 0.167299 0.167899 0.167043 0.167629 0.166327 0.167043 0.166089 0.166788 0.167043 0.167629 0.166788 0.167359 0.167899 0.168388 0.167629 0.168105 0.168388 0.168784 0.168105 0.168491 0.167629 0.168105 0.167359 0.167823 0.168105 0.168491 0.167823 0.168198 0.166089 0.166788 0.165851 0.166533 0.166788 0.167359 0.166533 0.16709 0.165851 0.166533 0.165612 0.166279 0.166533 0.16709 0.166279 0.166822 0.167359 0.167823 0.16709 0.167542 0.167823 0.168198 0.167542 0.167907 0.16709 0.167542 0.166822 0.167262 0.167542 0.167907 0.167262 0.167616 0.168784 0.169103 0.168491 0.1688 0.169103 0.169357 0.1688 0.169048 0.168491 0.1688 0.168198 0.168499 0.1688 0.169048 0.168499 0.16874 0.169357 0.169559 0.169048 0.169244 0.169559 0.169719 0.169244 0.169399 0.169048 0.169244 0.16874 0.16893 0.169244 0.169399 0.16893 0.16908 0.168198 0.168499 0.167907 0.168199 0.168499 0.16874 0.168199 0.168432 0.167907 0.168199 0.167616 0.1679 0.168199 0.168432 0.1679 0.168126 0.16874 0.16893 0.168432 0.168617 0.16893 0.16908 0.168617 0.168762 0.168432 0.168617 0.168126 0.168305 0.168617 0.168762 0.168305 0.168445 0.165612 0.166279 0.165373 0.166024 0.166279 0.166822 0.166024 0.166553 0.165373 0.166024 0.165132 0.165768 0.166024 0.166553 0.165768 0.166285 0.166822 0.167262 0.166553 0.166982 0.167262 0.167616 0.166982 0.167326 0.166553 0.166982 0.166285 0.166702 0.166982 0.167326 0.166702 0.167036 0.165132 0.165768 0.164891 0.165512 0.165768 0.166285 0.165512 0.166016 0.164891 0.165512 0.164647 0.165254 0.165512 0.166016 0.165254 0.165746 0.166285 0.166702 0.166016 0.166422 0.166702 0.167036 0.166422 0.166747 0.166016 0.166422 0.165746 0.166141 0.166422 0.166747 0.166141 0.166457 0.167616 0.1679 0.167326 0.167602 0.1679 0.168126 0.167602 0.16782 0.167326 0.167602 0.167036 0.167303 0.167602 0.16782 0.167303 0.167515 0.168126 0.168305 0.16782 0.167993 0.168305 0.168445 0.167993 0.168129 0.16782 0.167993 0.167515 0.167682 0.167993 0.168129 0.167682 0.167813 0.167036 0.167303 0.166747 0.167005 0.167303 0.167515 0.167005 0.16721 0.166747 0.167005 0.166457 0.166707 0.167005 0.16721 0.166707 0.166905 0.167515 0.167682 0.16721 0.167371 0.167682 0.167813 0.167371 0.167497 0.16721 0.167371 0.166905 0.16706 0.167371 0.167497 0.16706 0.167181 0.1522 0.154828 0.152096 0.154707 0.154828 0.157066 0.154707 0.156927 0.152096 0.154707 0.151978 0.154574 0.154707 0.156927 0.154574 0.156778 0.157066 0.158961 0.156927 0.158802 0.158961 0.160554 0.158802 0.160376 0.156927 0.158802 0.156778 0.158636 0.158802 0.160376 0.158636 0.160192 0.151978 0.154574 0.151846 0.15443 0.154574 0.156778 0.15443 0.156619 0.151846 0.15443 0.151702 0.154276 0.15443 0.156619 0.154276 0.156452 0.156778 0.158636 0.156619 0.158461 0.158636 0.160192 0.158461 0.160001 0.156619 0.158461 0.156452 0.15828 0.158461 0.160001 0.15828 0.159805 0.160554 0.161885 0.160376 0.161689 0.161885 0.16299 0.161689 0.162776 0.160376 0.161689 0.160192 0.161487 0.161689 0.162776 0.161487 0.162557 0.16299 0.163901 0.162776 0.16367 0.163901 0.164647 0.16367 0.164401 0.162776 0.16367 0.162557 0.163436 0.16367 0.164401 0.163436 0.164154 0.160192 0.161487 0.160001 0.16128 0.161487 0.162557 0.16128 0.162335 0.160001 0.16128 0.159805 0.161068 0.16128 0.162335 0.161068 0.162109 0.162557 0.163436 0.162335 0.1632 0.163436 0.164154 0.1632 0.163903 0.162335 0.1632 0.162109 0.16296 0.1632 0.163903 0.16296 0.163651 0.151702 0.154276 0.151545 0.154111 0.154276 0.156452 0.154111 0.156275 0.151545 0.154111 0.151377 0.153935 0.154111 0.156275 0.153935 0.15609 0.156452 0.15828 0.156275 0.15809 0.15828 0.159805 0.15809 0.159601 0.156275 0.15809 0.15609 0.157893 0.15809 0.159601 0.157893 0.159391 0.151377 0.153935 0.151196 0.153749 0.153935 0.15609 0.153749 0.155895 0.151196 0.153749 0.151004 0.153552 0.153749 0.155895 0.153552 0.155691 0.15609 0.157893 0.155895 0.157688 0.157893 0.159391 0.157688 0.159175 0.155895 0.157688 0.155691 0.157475 0.157688 0.159175 0.157475 0.158952 0.159805 0.161068 0.159601 0.160851 0.161068 0.162109 0.160851 0.161878 0.159601 0.160851 0.159391 0.160628 0.160851 0.161878 0.160628 0.161643 0.162109 0.16296 0.161878 0.162716 0.16296 0.163651 0.162716 0.163395 0.161878 0.162716 0.161643 0.162468 0.162716 0.163395 0.162468 0.163136 0.159391 0.160628 0.159175 0.1604 0.160628 0.161643 0.1604 0.161403 0.159175 0.1604 0.158952 0.160166 0.1604 0.161403 0.160166 0.161158 0.161643 0.162468 0.161403 0.162217 0.162468 0.163136 0.162217 0.162874 0.161403 0.162217 0.161158 0.161962 0.162217 0.162874 0.161962 0.162608 0.164647 0.165254 0.164401 0.164996 0.165254 0.165746 0.164996 0.165475 0.164401 0.164996 0.164154 0.164735 0.164996 0.165475 0.164735 0.165203 0.165746 0.166141 0.165475 0.16586 0.166141 0.166457 0.16586 0.166166 0.165475 0.16586 0.165203 0.165578 0.16586 0.166166 0.165578 0.165875 0.164154 0.164735 0.163903 0.164473 0.164735 0.165203 0.164473 0.16493 0.163903 0.164473 0.163651 0.164208 0.164473 0.16493 0.164208 0.164655 0.165203 0.165578 0.16493 0.165294 0.165578 0.165875 0.165294 0.165584 0.16493 0.165294 0.164655 0.16501 0.165294 0.165584 0.16501 0.165291 0.166457 0.166707 0.166166 0.166409 0.166707 0.166905 0.166409 0.1666 0.166166 0.166409 0.165875 0.16611 0.166409 0.1666 0.16611 0.166295 0.166905 0.16706 0.1666 0.16675 0.16706 0.167181 0.16675 0.166866 0.1666 0.16675 0.166295 0.166439 0.16675 0.166866 0.166439 0.166551 0.165875 0.16611 0.165584 0.165811 0.16611 0.166295 0.165811 0.16599 0.165584 0.165811 0.165291 0.165512 0.165811 0.16599 0.165512 0.165684 0.166295 0.166439 0.16599 0.166128 0.166439 0.166551 0.166128 0.166235 0.16599 0.166128 0.165684 0.165817 0.166128 0.166235 0.165817 0.16592 0.163651 0.164208 0.163395 0.163941 0.164208 0.164655 0.163941 0.164378 0.163395 0.163941 0.163136 0.163672 0.163941 0.164378 0.163672 0.164099 0.164655 0.16501 0.164378 0.164724 0.16501 0.165291 0.164724 0.164997 0.164378 0.164724 0.164099 0.164437 0.164724 0.164997 0.164437 0.164703 0.163136 0.163672 0.162874 0.1634 0.163672 0.164099 0.1634 0.163818 0.162874 0.1634 0.162608 0.163125 0.1634 0.163818 0.163125 0.163535 0.164099 0.164437 0.163818 0.164148 0.164437 0.164703 0.164148 0.164406 0.163818 0.164148 0.163535 0.163857 0.164148 0.164406 0.163857 0.164109 0.165291 0.165512 0.164997 0.165211 0.165512 0.165684 0.165211 0.165377 0.164997 0.165211 0.164703 0.16491 0.165211 0.165377 0.16491 0.16507 0.165684 0.165817 0.165377 0.165505 0.165817 0.16592 0.165505 0.165604 0.165377 0.165505 0.16507 0.165193 0.165505 0.165604 0.165193 0.165287 0.164703 0.16491 0.164406 0.164607 0.16491 0.16507 0.164607 0.164762 0.164406 0.164607 0.164109 0.164303 0.164607 0.164762 0.164303 0.164453 0.16507 0.165193 0.164762 0.164881 0.165193 0.165287 0.164881 0.164971 0.164762 0.164881 0.164453 0.164567 0.164881 0.164971 0.164567 0.164653 0 0.0163059 0 0.0161534 0.0163059 0.0320772 0.0161534 0.0317703 0 0.0161534 0 0.0160233 0.0161534 0.0317703 0.0160233 0.0315069 0.0320772 0.0473392 0.0317703 0.0468839 0.0473392 0.061858 0.0468839 0.0612922 0.0317703 0.0468839 0.0315069 0.0464867 0.0468839 0.0612922 0.0464867 0.0607877 0 0.0160233 0 0.0159114 0.0160233 0.0315069 0.0159114 0.0312791 0 0.0159114 0 0.0158141 0.0159114 0.0312791 0.0158141 0.0310803 0.0315069 0.0464867 0.0312791 0.0461382 0.0464867 0.0607877 0.0461382 0.0603364 0.0312791 0.0461382 0.0310803 0.0458304 0.0461382 0.0603364 0.0458304 0.0599311 0.061858 0.0753037 0.0612922 0.0746927 0.0753037 0.0874509 0.0746927 0.0868593 0.0612922 0.0746927 0.0607877 0.074134 0.0746927 0.0868593 0.074134 0.0863041 0.0874509 0.098253 0.0868593 0.0977216 0.098253 0.107784 0.0977216 0.107327 0.0868593 0.0977216 0.0863041 0.09721 0.0977216 0.107327 0.09721 0.106876 0.0607877 0.074134 0.0603364 0.0736229 0.074134 0.0863041 0.0736229 0.0857839 0.0603364 0.0736229 0.0599311 0.0731547 0.0736229 0.0857839 0.0731547 0.0852969 0.0863041 0.09721 0.0857839 0.0967194 0.09721 0.106876 0.0967194 0.106435 0.0857839 0.0967194 0.0852969 0.09625 0.0967194 0.106435 0.09625 0.106004 0 0.0158141 0 0.0157289 0.0158141 0.0310803 0.0157289 0.0309054 0 0.0157289 0 0.0156534 0.0157289 0.0309054 0.0156534 0.0307503 0.0310803 0.0458304 0.0309054 0.0455571 0.0458304 0.0599311 0.0455571 0.0595659 0.0309054 0.0455571 0.0307503 0.0453128 0.0455571 0.0595659 0.0453128 0.0592355 0 0.0156534 0 0.0155859 0.0156534 0.0307503 0.0155859 0.0306114 0 0.0155859 0 0.015525 0.0155859 0.0306114 0.015525 0.0304862 0.0307503 0.0453128 0.03