# vtk DataFile Version 3.0
#This file was generated by the deal.II library on 2022/1/6 at 22:41:13
ASCII
DATASET UNSTRUCTURED_GRID

POINTS 16384 double
0 0 0
0.1875 0 0
0 0.046875 0
0.1875 0.046875 0
0.1875 0 0
0.375 0 0
0.1875 0.046875 0
0.375 0.046875 0
0 0.046875 0
0.1875 0.046875 0
0 0.09375 0
0.1875 0.09375 0
0.1875 0.046875 0
0.375 0.046875 0
0.1875 0.09375 0
0.375 0.09375 0
0.375 0 0
0.5625 0 0
0.375 0.046875 0
0.5625 0.046875 0
0.5625 0 0
0.75 0 0
0.5625 0.046875 0
0.75 0.046875 0
0.375 0.046875 0
0.5625 0.046875 0
0.375 0.09375 0
0.5625 0.09375 0
0.5625 0.046875 0
0.75 0.046875 0
0.5625 0.09375 0
0.75 0.09375 0
0 0.09375 0
0.1875 0.09375 0
0 0.140625 0
0.1875 0.140625 0
0.1875 0.09375 0
0.375 0.09375 0
0.1875 0.140625 0
0.375 0.140625 0
0 0.140625 0
0.1875 0.140625 0
0 0.1875 0
0.1875 0.1875 0
0.1875 0.140625 0
0.375 0.140625 0
0.1875 0.1875 0
0.375 0.1875 0
0.375 0.09375 0
0.5625 0.09375 0
0.375 0.140625 0
0.5625 0.140625 0
0.5625 0.09375 0
0.75 0.09375 0
0.5625 0.140625 0
0.75 0.140625 0
0.375 0.140625 0
0.5625 0.140625 0
0.375 0.1875 0
0.5625 0.1875 0
0.5625 0.140625 0
0.75 0.140625 0
0.5625 0.1875 0
0.75 0.1875 0
0.75 0 0
0.9375 0 0
0.75 0.046875 0
0.9375 0.046875 0
0.9375 0 0
1.125 0 0
0.9375 0.046875 0
1.125 0.046875 0
0.75 0.046875 0
0.9375 0.046875 0
0.75 0.09375 0
0.9375 0.09375 0
0.9375 0.046875 0
1.125 0.046875 0
0.9375 0.09375 0
1.125 0.09375 0
1.125 0 0
1.3125 0 0
1.125 0.046875 0
1.3125 0.046875 0
1.3125 0 0
1.5 0 0
1.3125 0.046875 0
1.5 0.046875 0
1.125 0.046875 0
1.3125 0.046875 0
1.125 0.09375 0
1.3125 0.09375 0
1.3125 0.046875 0
1.5 0.046875 0
1.3125 0.09375 0
1.5 0.09375 0
0.75 0.09375 0
0.9375 0.09375 0
0.75 0.140625 0
0.9375 0.140625 0
0.9375 0.09375 0
1.125 0.09375 0
0.9375 0.140625 0
1.125 0.140625 0
0.75 0.140625 0
0.9375 0.140625 0
0.75 0.1875 0
0.9375 0.1875 0
0.9375 0.140625 0
1.125 0.140625 0
0.9375 0.1875 0
1.125 0.1875 0
1.125 0.09375 0
1.3125 0.09375 0
1.125 0.140625 0
1.3125 0.140625 0
1.3125 0.09375 0
1.5 0.09375 0
1.3125 0.140625 0
1.5 0.140625 0
1.125 0.140625 0
1.3125 0.140625 0
1.125 0.1875 0
1.3125 0.1875 0
1.3125 0.140625 0
1.5 0.140625 0
1.3125 0.1875 0
1.5 0.1875 0
0 0.1875 0
0.1875 0.1875 0
0 0.234375 0
0.1875 0.234375 0
0.1875 0.1875 0
0.375 0.1875 0
0.1875 0.234375 0
0.375 0.234375 0
0 0.234375 0
0.1875 0.234375 0
0 0.28125 0
0.1875 0.28125 0
0.1875 0.234375 0
0.375 0.234375 0
0.1875 0.28125 0
0.375 0.28125 0
0.375 0.1875 0
0.5625 0.1875 0
0.375 0.234375 0
0.5625 0.234375 0
0.5625 0.1875 0
0.75 0.1875 0
0.5625 0.234375 0
0.75 0.234375 0
0.375 0.234375 0
0.5625 0.234375 0
0.375 0.28125 0
0.5625 0.28125 0
0.5625 0.234375 0
0.75 0.234375 0
0.5625 0.28125 0
0.75 0.28125 0
0 0.28125 0
0.1875 0.28125 0
0 0.328125 0
0.1875 0.328125 0
0.1875 0.28125 0
0.375 0.28125 0
0.1875 0.328125 0
0.375 0.328125 0
0 0.328125 0
0.1875 0.328125 0
0 0.375 0
0.1875 0.375 0
0.1875 0.328125 0
0.375 0.328125 0
0.1875 0.375 0
0.375 0.375 0
0.375 0.28125 0
0.5625 0.28125 0
0.375 0.328125 0
0.5625 0.328125 0
0.5625 0.28125 0
0.75 0.28125 0
0.5625 0.328125 0
0.75 0.328125 0
0.375 0.328125 0
0.5625 0.328125 0
0.375 0.375 0
0.5625 0.375 0
0.5625 0.328125 0
0.75 0.328125 0
0.5625 0.375 0
0.75 0.375 0
0.75 0.1875 0
0.9375 0.1875 0
0.75 0.234375 0
0.9375 0.234375 0
0.9375 0.1875 0
1.125 0.1875 0
0.9375 0.234375 0
1.125 0.234375 0
0.75 0.234375 0
0.9375 0.234375 0
0.75 0.28125 0
0.9375 0.28125 0
0.9375 0.234375 0
1.125 0.234375 0
0.9375 0.28125 0
1.125 0.28125 0
1.125 0.1875 0
1.3125 0.1875 0
1.125 0.234375 0
1.3125 0.234375 0
1.3125 0.1875 0
1.5 0.1875 0
1.3125 0.234375 0
1.5 0.234375 0
1.125 0.234375 0
1.3125 0.234375 0
1.125 0.28125 0
1.3125 0.28125 0
1.3125 0.234375 0
1.5 0.234375 0
1.3125 0.28125 0
1.5 0.28125 0
0.75 0.28125 0
0.9375 0.28125 0
0.75 0.328125 0
0.9375 0.328125 0
0.9375 0.28125 0
1.125 0.28125 0
0.9375 0.328125 0
1.125 0.328125 0
0.75 0.328125 0
0.9375 0.328125 0
0.75 0.375 0
0.9375 0.375 0
0.9375 0.328125 0
1.125 0.328125 0
0.9375 0.375 0
1.125 0.375 0
1.125 0.28125 0
1.3125 0.28125 0
1.125 0.328125 0
1.3125 0.328125 0
1.3125 0.28125 0
1.5 0.28125 0
1.3125 0.328125 0
1.5 0.328125 0
1.125 0.328125 0
1.3125 0.328125 0
1.125 0.375 0
1.3125 0.375 0
1.3125 0.328125 0
1.5 0.328125 0
1.3125 0.375 0
1.5 0.375 0
1.5 0 0
1.6875 0 0
1.5 0.046875 0
1.6875 0.046875 0
1.6875 0 0
1.875 0 0
1.6875 0.046875 0
1.875 0.046875 0
1.5 0.046875 0
1.6875 0.046875 0
1.5 0.09375 0
1.6875 0.09375 0
1.6875 0.046875 0
1.875 0.046875 0
1.6875 0.09375 0
1.875 0.09375 0
1.875 0 0
2.0625 0 0
1.875 0.046875 0
2.0625 0.046875 0
2.0625 0 0
2.25 0 0
2.0625 0.046875 0
2.25 0.046875 0
1.875 0.046875 0
2.0625 0.046875 0
1.875 0.09375 0
2.0625 0.09375 0
2.0625 0.046875 0
2.25 0.046875 0
2.0625 0.09375 0
2.25 0.09375 0
1.5 0.09375 0
1.6875 0.09375 0
1.5 0.140625 0
1.6875 0.140625 0
1.6875 0.09375 0
1.875 0.09375 0
1.6875 0.140625 0
1.875 0.140625 0
1.5 0.140625 0
1.6875 0.140625 0
1.5 0.1875 0
1.6875 0.1875 0
1.6875 0.140625 0
1.875 0.140625 0
1.6875 0.1875 0
1.875 0.1875 0
1.875 0.09375 0
2.0625 0.09375 0
1.875 0.140625 0
2.0625 0.140625 0
2.0625 0.09375 0
2.25 0.09375 0
2.0625 0.140625 0
2.25 0.140625 0
1.875 0.140625 0
2.0625 0.140625 0
1.875 0.1875 0
2.0625 0.1875 0
2.0625 0.140625 0
2.25 0.140625 0
2.0625 0.1875 0
2.25 0.1875 0
2.25 0 0
2.4375 0 0
2.25 0.046875 0
2.4375 0.046875 0
2.4375 0 0
2.625 0 0
2.4375 0.046875 0
2.625 0.046875 0
2.25 0.046875 0
2.4375 0.046875 0
2.25 0.09375 0
2.4375 0.09375 0
2.4375 0.046875 0
2.625 0.046875 0
2.4375 0.09375 0
2.625 0.09375 0
2.625 0 0
2.8125 0 0
2.625 0.046875 0
2.8125 0.046875 0
2.8125 0 0
3 0 0
2.8125 0.046875 0
3 0.046875 0
2.625 0.046875 0
2.8125 0.046875 0
2.625 0.09375 0
2.8125 0.09375 0
2.8125 0.046875 0
3 0.046875 0
2.8125 0.09375 0
3 0.09375 0
2.25 0.09375 0
2.4375 0.09375 0
2.25 0.140625 0
2.4375 0.140625 0
2.4375 0.09375 0
2.625 0.09375 0
2.4375 0.140625 0
2.625 0.140625 0
2.25 0.140625 0
2.4375 0.140625 0
2.25 0.1875 0
2.4375 0.1875 0
2.4375 0.140625 0
2.625 0.140625 0
2.4375 0.1875 0
2.625 0.1875 0
2.625 0.09375 0
2.8125 0.09375 0
2.625 0.140625 0
2.8125 0.140625 0
2.8125 0.09375 0
3 0.09375 0
2.8125 0.140625 0
3 0.140625 0
2.625 0.140625 0
2.8125 0.140625 0
2.625 0.1875 0
2.8125 0.1875 0
2.8125 0.140625 0
3 0.140625 0
2.8125 0.1875 0
3 0.1875 0
1.5 0.1875 0
1.6875 0.1875 0
1.5 0.234375 0
1.6875 0.234375 0
1.6875 0.1875 0
1.875 0.1875 0
1.6875 0.234375 0
1.875 0.234375 0
1.5 0.234375 0
1.6875 0.234375 0
1.5 0.28125 0
1.6875 0.28125 0
1.6875 0.234375 0
1.875 0.234375 0
1.6875 0.28125 0
1.875 0.28125 0
1.875 0.1875 0
2.0625 0.1875 0
1.875 0.234375 0
2.0625 0.234375 0
2.0625 0.1875 0
2.25 0.1875 0
2.0625 0.234375 0
2.25 0.234375 0
1.875 0.234375 0
2.0625 0.234375 0
1.875 0.28125 0
2.0625 0.28125 0
2.0625 0.234375 0
2.25 0.234375 0
2.0625 0.28125 0
2.25 0.28125 0
1.5 0.28125 0
1.6875 0.28125 0
1.5 0.328125 0
1.6875 0.328125 0
1.6875 0.28125 0
1.875 0.28125 0
1.6875 0.328125 0
1.875 0.328125 0
1.5 0.328125 0
1.6875 0.328125 0
1.5 0.375 0
1.6875 0.375 0
1.6875 0.328125 0
1.875 0.328125 0
1.6875 0.375 0
1.875 0.375 0
1.875 0.28125 0
2.0625 0.28125 0
1.875 0.328125 0
2.0625 0.328125 0
2.0625 0.28125 0
2.25 0.28125 0
2.0625 0.328125 0
2.25 0.328125 0
1.875 0.328125 0
2.0625 0.328125 0
1.875 0.375 0
2.0625 0.375 0
2.0625 0.328125 0
2.25 0.328125 0
2.0625 0.375 0
2.25 0.375 0
2.25 0.1875 0
2.4375 0.1875 0
2.25 0.234375 0
2.4375 0.234375 0
2.4375 0.1875 0
2.625 0.1875 0
2.4375 0.234375 0
2.625 0.234375 0
2.25 0.234375 0
2.4375 0.234375 0
2.25 0.28125 0
2.4375 0.28125 0
2.4375 0.234375 0
2.625 0.234375 0
2.4375 0.28125 0
2.625 0.28125 0
2.625 0.1875 0
2.8125 0.1875 0
2.625 0.234375 0
2.8125 0.234375 0
2.8125 0.1875 0
3 0.1875 0
2.8125 0.234375 0
3 0.234375 0
2.625 0.234375 0
2.8125 0.234375 0
2.625 0.28125 0
2.8125 0.28125 0
2.8125 0.234375 0
3 0.234375 0
2.8125 0.28125 0
3 0.28125 0
2.25 0.28125 0
2.4375 0.28125 0
2.25 0.328125 0
2.4375 0.328125 0
2.4375 0.28125 0
2.625 0.28125 0
2.4375 0.328125 0
2.625 0.328125 0
2.25 0.328125 0
2.4375 0.328125 0
2.25 0.375 0
2.4375 0.375 0
2.4375 0.328125 0
2.625 0.328125 0
2.4375 0.375 0
2.625 0.375 0
2.625 0.28125 0
2.8125 0.28125 0
2.625 0.328125 0
2.8125 0.328125 0
2.8125 0.28125 0
3 0.28125 0
2.8125 0.328125 0
3 0.328125 0
2.625 0.328125 0
2.8125 0.328125 0
2.625 0.375 0
2.8125 0.375 0
2.8125 0.328125 0
3 0.328125 0
2.8125 0.375 0
3 0.375 0
0 0.375 0
0.1875 0.375 0
0 0.421875 0
0.1875 0.421875 0
0.1875 0.375 0
0.375 0.375 0
0.1875 0.421875 0
0.375 0.421875 0
0 0.421875 0
0.1875 0.421875 0
0 0.46875 0
0.1875 0.46875 0
0.1875 0.421875 0
0.375 0.421875 0
0.1875 0.46875 0
0.375 0.46875 0
0.375 0.375 0
0.5625 0.375 0
0.375 0.421875 0
0.5625 0.421875 0
0.5625 0.375 0
0.75 0.375 0
0.5625 0.421875 0
0.75 0.421875 0
0.375 0.421875 0
0.5625 0.421875 0
0.375 0.46875 0
0.5625 0.46875 0
0.5625 0.421875 0
0.75 0.421875 0
0.5625 0.46875 0
0.75 0.46875 0
0 0.46875 0
0.1875 0.46875 0
0 0.515625 0
0.1875 0.515625 0
0.1875 0.46875 0
0.375 0.46875 0
0.1875 0.515625 0
0.375 0.515625 0
0 0.515625 0
0.1875 0.515625 0
0 0.5625 0
0.1875 0.5625 0
0.1875 0.515625 0
0.375 0.515625 0
0.1875 0.5625 0
0.375 0.5625 0
0.375 0.46875 0
0.5625 0.46875 0
0.375 0.515625 0
0.5625 0.515625 0
0.5625 0.46875 0
0.75 0.46875 0
0.5625 0.515625 0
0.75 0.515625 0
0.375 0.515625 0
0.5625 0.515625 0
0.375 0.5625 0
0.5625 0.5625 0
0.5625 0.515625 0
0.75 0.515625 0
0.5625 0.5625 0
0.75 0.5625 0
0.75 0.375 0
0.9375 0.375 0
0.75 0.421875 0
0.9375 0.421875 0
0.9375 0.375 0
1.125 0.375 0
0.9375 0.421875 0
1.125 0.421875 0
0.75 0.421875 0
0.9375 0.421875 0
0.75 0.46875 0
0.9375 0.46875 0
0.9375 0.421875 0
1.125 0.421875 0
0.9375 0.46875 0
1.125 0.46875 0
1.125 0.375 0
1.3125 0.375 0
1.125 0.421875 0
1.3125 0.421875 0
1.3125 0.375 0
1.5 0.375 0
1.3125 0.421875 0
1.5 0.421875 0
1.125 0.421875 0
1.3125 0.421875 0
1.125 0.46875 0
1.3125 0.46875 0
1.3125 0.421875 0
1.5 0.421875 0
1.3125 0.46875 0
1.5 0.46875 0
0.75 0.46875 0
0.9375 0.46875 0
0.75 0.515625 0
0.9375 0.515625 0
0.9375 0.46875 0
1.125 0.46875 0
0.9375 0.515625 0
1.125 0.515625 0
0.75 0.515625 0
0.9375 0.515625 0
[...]
POINT_DATA 16384
SCALARS x_displacement double 1
LOOKUP_TABLE default
0 0.0315192 0 0.028455 0.0315192 0.0551236 0.028455 0.0539209 0 0.028455 0 0.0263343 0.028455 0.0539209 0.0263343 0.051559 0.0551236 0.0686943 0.0539209 0.0678357 0.0686943 0.0720633 0.0678357 0.0716346 0.0539209 0.0678357 0.051559 0.066231 0.0678357 0.0716346 0.066231 0.0707239 0 0.0263343 0 0.0245548 0.0263343 0.051559 0.0245548 0.0483309 0 0.0245548 0 0.0230379 0.0245548 0.0483309 0.0230379 0.0449831 0.051559 0.066231 0.0483309 0.0637887 0.066231 0.0707239 0.0637887 0.069371 0.0483309 0.0637887 0.0449831 0.0603642 0.0637887 0.069371 0.0603642 0.067711 0.0720633 0.0746465 0.0716346 0.0745986 0.0746465 0.0775071 0.0745986 0.0777094 0.0716346 0.0745986 0.0707239 0.074286 0.0745986 0.0777094 0.074286 0.0777149 0.0775071 0.08029 0.0777094 0.0805443 0.08029 0.0827352 0.0805443 0.0829688 0.0777094 0.0805443 0.0777149 0.080667 0.0805443 0.0829688 0.080667 0.0831103 0.0707239 0.074286 0.069371 0.0737509 0.074286 0.0777149 0.0737509 0.0775523 0.069371 0.0737509 0.067711 0.0730413 0.0737509 0.0775523 0.0730413 0.0772435 0.0777149 0.080667 0.0775523 0.0806673 0.080667 0.0831103 0.0806673 0.0831655 0.0775523 0.0806673 0.0772435 0.0805588 0.0806673 0.0831655 0.0805588 0.0831404 0 0.0230379 0 0.0217404 0.0230379 0.0449831 0.0217404 0.0418173 0 0.0217404 0 0.020588 0.0217404 0.0418173 0.020588 0.0393103 0.0449831 0.0603642 0.0418173 0.0568417 0.0603642 0.067711 0.0568417 0.0659824 0.0418173 0.0568417 0.0393103 0.0540304 0.0568417 0.0659824 0.0540304 0.0642238 0 0.020588 0 0.019612 0.020588 0.0393103 0.019612 0.037324 0 0.019612 0 0.0188064 0.019612 0.037324 0.0188064 0.0357428 0.0393103 0.0540304 0.037324 0.0517906 0.0540304 0.0642238 0.0517906 0.062565 0.037324 0.0517906 0.0357428 0.0499647 0.0517906 0.062565 0.0499647 0.0610574 0.067711 0.0730413 0.0659824 0.0721818 0.0730413 0.0772435 0.0721818 0.0768171 0.0659824 0.0721818 0.0642238 0.0712312 0.0721818 0.0768171 0.0712312 0.0762949 0.0772435 0.0805588 0.0768171 0.0803544 0.0805588 0.0831404 0.0803544 0.0830422 0.0768171 0.0803544 0.0762949 0.0800682 0.0803544 0.0830422 0.0800682 0.0828784 0.0642238 0.0712312 0.062565 0.0702243 0.0712312 0.0762949 0.0702243 0.0757018 0.062565 0.0702243 0.0610574 0.069204 0.0702243 0.0757018 0.069204 0.0750579 0.0762949 0.0800682 0.0757018 0.0797133 0.0800682 0.0828784 0.0797133 0.082657 0.0757018 0.0797133 0.0750579 0.0793032 0.0797133 0.082657 0.0793032 0.0823858 0.0827352 0.084787 0.0829688 0.0849647 0.084787 0.0864654 0.0849647 0.0865712 0.0829688 0.0849647 0.0831103 0.0850786 0.0849647 0.0865712 0.0850786 0.0866343 0.0864654 0.087817 0.0865712 0.0878474 0.087817 0.0888956 0.0878474 0.088854 0.0865712 0.0878474 0.0866343 0.0878506 0.0878474 0.088854 0.0878506 0.0887967 0.0831103 0.0850786 0.0831655 0.0851314 0.0850786 0.0866343 0.0851314 0.0866555 0.0831655 0.0851314 0.0831404 0.0851263 0.0851314 0.0866555 0.0851263 0.0866361 0.0866343 0.0878506 0.0866555 0.0878264 0.0878506 0.0887967 0.0878264 0.0887227 0.0866555 0.0878264 0.0866361 0.0877749 0.0878264 0.0887227 0.0877749 0.0886315 0.0888956 0.0897521 0.088854 0.0896461 0.0897521 0.0904305 0.0896461 0.0902695 0.088854 0.0896461 0.0887967 0.0895324 0.0896461 0.0902695 0.0895324 0.0901063 0.0904305 0.0909674 0.0902695 0.0907611 0.0909674 0.0913919 0.0907611 0.0911495 0.0902695 0.0907611 0.0901063 0.0905561 0.0907611 0.0911495 0.0905561 0.0909103 0.0887967 0.0895324 0.0887227 0.0894099 0.0895324 0.0901063 0.0894099 0.0899395 0.0887227 0.0894099 0.0886315 0.0892775 0.0894099 0.0899395 0.0892775 0.0897682 0.0901063 0.0905561 0.0899395 0.090351 0.0905561 0.0909103 0.090351 0.0906733 0.0899395 0.090351 0.0897682 0.090145 0.090351 0.0906733 0.090145 0.0904375 0.0831404 0.0851263 0.0830422 0.0850671 0.0851263 0.0866361 0.0850671 0.0865779 0.0830422 0.0850671 0.0828784 0.0849579 0.0850671 0.0865779 0.0849579 0.0864828 0.0866361 0.0877749 0.0865779 0.0876967 0.0877749 0.0886315 0.0876967 0.0885229 0.0865779 0.0876967 0.0864828 0.0875924 0.0876967 0.0885229 0.0875924 0.0883967 0.0828784 0.0849579 0.082657 0.0848031 0.0849579 0.0864828 0.0848031 0.0863533 0.082657 0.0848031 0.0823858 0.0846074 0.0848031 0.0863533 0.0846074 0.0861919 0.0864828 0.0875924 0.0863533 0.0874632 0.0875924 0.0883967 0.0874632 0.0882533 0.0863533 0.0874632 0.0861919 0.0873102 0.0874632 0.0882533 0.0873102 0.0880929 0.0886315 0.0892775 0.0885229 0.0891346 0.0892775 0.0897682 0.0891346 0.0895915 0.0885229 0.0891346 0.0883967 0.0889808 0.0891346 0.0895915 0.0889808 0.0894085 0.0897682 0.090145 0.0895915 0.0899369 0.090145 0.0904375 0.0899369 0.090202 0.0895915 0.0899369 0.0894085 0.089726 0.0899369 0.090202 0.089726 0.0899659 0.0883967 0.0889808 0.0882533 0.0888157 0.0889808 0.0894085 0.0888157 0.0892188 0.0882533 0.0888157 0.0880929 0.0886392 0.0888157 0.0892188 0.0886392 0.0890219 0.0894085 0.089726 0.0892188 0.0895117 0.089726 0.0899659 0.0895117 0.0897286 0.0892188 0.0895117 0.0890219 0.0892933 0.0895117 0.0897286 0.0892933 0.0894895 0 0.0188064 0 0.0181501 0.0188064 0.0357428 0.0181501 0.0344752 0 0.0181501 0 0.0176177 0.0181501 0.0344752 0.0176177 0.0334518 0.0357428 0.0499647 0.0344752 0.0484559 0.0499647 0.0610574 0.0484559 0.0597079 0.0344752 0.0484559 0.0334518 0.0471977 0.0484559 0.0597079 0.0471977 0.0585083 0 0.0176177 0 0.0171858 0.0176177 0.0334518 0.0171858 0.0326196 0 0.0171858 0 0.016834 0.0171858 0.0326196 0.016834 0.0319377 0.0334518 0.0471977 0.0326196 0.0461408 0.0471977 0.0585083 0.0461408 0.057445 0.0326196 0.0461408 0.0319377 0.0452475 0.0461408 0.057445 0.0452475 0.0565036 0.0610574 0.069204 0.0597079 0.0682044 0.069204 0.0750579 0.0682044 0.0743823 0.0597079 0.0682044 0.0585083 0.0672468 0.0682044 0.0743823 0.0672468 0.0736926 0.0750579 0.0793032 0.0743823 0.0788502 0.0793032 0.0823858 0.0788502 0.0820725 0.0743823 0.0788502 0.0736926 0.0783655 0.0788502 0.0820725 0.0783655 0.0817246 0.0585083 0.0672468 0.057445 0.0663431 0.0672468 0.0736926 0.0663431 0.0730032 0.057445 0.0663431 0.0565036 0.0654989 0.0663431 0.0730032 0.0654989 0.0723253 0.0736926 0.0783655 0.0730032 0.0778593 0.0783655 0.0817246 0.0778593 0.081349 0.0730032 0.0778593 0.0723253 0.0773406 0.0778593 0.081349 0.0773406 0.0809523 0 0.016834 0 0.0165459 0.016834 0.0319377 0.0165459 0.0313748 0 0.0165459 0 0.0163082 0.0165459 0.0313748 0.0163082 0.0309064 0.0319377 0.0452475 0.0313748 0.0444878 0.0452475 0.0565036 0.0444878 0.0556697 0.0313748 0.0444878 0.0309064 0.0438381 0.0444878 0.0556697 0.0438381 0.0549301 0 0.0163082 0 0.0161105 0.0163082 0.0309064 0.0161105 0.0305134 0 0.0161105 0 0.0159446 0.0161105 0.0305134 0.0159446 0.0301808 0.0309064 0.0438381 0.0305134 0.0432791 0.0438381 0.0549301 0.0432791 0.0542729 0.0305134 0.0432791 0.0301808 0.0427953 0.0432791 0.0542729 0.0427953 0.0536876 0.0565036 0.0654989 0.0556697 0.0647155 0.0654989 0.0723253 0.0647155 0.0716668 0.0556697 0.0647155 0.0549301 0.0639917 0.0647155 0.0716668 0.0639917 0.0710329 0.0723253 0.0773406 0.0716668 0.0768171 0.0773406 0.0809523 0.0768171 0.0805402 0.0716668 0.0768171 0.0710329 0.0762951 0.0768171 0.0805402 0.0762951 0.0801179 0.0549301 0.0639917 0.0542729 0.0633249 0.0639917 0.0710329 0.0633249 0.0704272 0.0542729 0.0633249 0.0536876 0.0627116 0.0633249 0.0704272 0.0627116 0.0698512 0.0710329 0.0762951 0.0704272 0.0757797 0.0762951 0.0801179 0.0757797 0.07969 0.0704272 0.0757797 0.0698512 0.0752748 0.0757797 0.07969 0.0752748 0.0792604 0.0823858 0.0846074 0.0820725 0.0843754 0.0846074 0.0861919 0.0843754 0.0860014 0.0820725 0.0843754 0.0817246 0.0841118 0.0843754 0.0860014 0.0841118 0.0857845 0.0861919 0.0873102 0.0860014 0.0871349 0.0873102 0.0880929 0.0871349 0.0879163 0.0860014 0.0871349 0.0857845 0.0869389 0.0871349 0.0879163 0.0869389 0.0877241 0.0817246 0.0841118 0.081349 0.0838213 0.0841118 0.0857845 0.0838213 0.0855442 0.081349 0.0838213 0.0809523 0.0835081 0.0838213 0.0855442 0.0835081 0.0852831 0.0857845 0.0869389 0.0855442 0.0867237 0.0869389 0.0877241 0.0867237 0.0875171 0.0855442 0.0867237 0.0852831 0.0864911 0.0867237 0.0875171 0.0864911 0.0872962 0.0880929 0.0886392 0.0879163 0.0884513 0.0886392 0.0890219 0.0884513 0.0888176 0.0879163 0.0884513 0.0877241 0.0882523 0.0884513 0.0888176 0.0882523 0.0886057 0.0890219 0.0892933 0.0888176 0.0890705 0.0892933 0.0894895 0.0890705 0.0892481 0.0888176 0.0890705 0.0886057 0.0888428 0.0890705 0.0892481 0.0888428 0.0890038 0.0877241 0.0882523 0.0875171 0.0880423 0.0882523 0.0886057 0.0880423 0.0883861 0.0875171 0.0880423 0.0872962 0.0878219 0.0880423 0.0883861 0.0878219 0.0881588 0.0886057 0.0888428 0.0883861 0.0886099 0.0888428 0.0890038 0.0886099 0.0887564 0.0883861 0.0886099 0.0881588 0.0883718 0.0886099 0.0887564 0.0883718 0.0885055 0.0809523 0.0835081 0.0805402 0.0831764 0.0835081 0.0852831 0.0831764 0.0850041 0.0805402 0.0831764 0.0801179 0.0828301 0.0831764 0.0850041 0.0828301 0.0847098 0.0852831 0.0864911 0.0850041 0.0862429 0.0864911 0.0872962 0.0862429 0.0870624 0.0850041 0.0862429 0.0847098 0.0859806 0.0862429 0.0870624 0.0859806 0.0868168 0.0801179 0.0828301 0.07969 0.0824726 0.0828301 0.0847098 0.0824726 0.0844027 0.07969 0.0824726 0.0792604 0.0821071 0.0824726 0.0844027 0.0821071 0.0840852 0.0847098 0.0859806 0.0844027 0.085706 0.0859806 0.0868168 0.085706 0.0865603 0.0844027 0.085706 0.0840852 0.0854206 0.085706 0.0865603 0.0854206 0.0862939 0.0872962 0.0878219 0.0870624 0.0875913 0.0878219 0.0881588 0.0875913 0.087924 0.0870624 0.0875913 0.0868168 0.0873511 0.0875913 0.087924 0.0873511 0.0876817 0.0881588 0.0883718 0.087924 0.0881282 0.0883718 0.0885055 0.0881282 0.0882509 0.087924 0.0881282 0.0876817 0.0878791 0.0881282 0.0882509 0.0878791 0.0879923 0.0868168 0.0873511 0.0865603 0.0871019 0.0873511 0.0876817 0.0871019 0.0874323 0.0865603 0.0871019 0.0862939 0.0868442 0.0871019 0.0874323 0.0868442 0.0871759 0.0876817 0.0878791 0.0874323 0.0876245 0.0878791 0.0879923 0.0876245 0.0877297 0.0874323 0.0876245 0.0871759 0.0873644 0.0876245 0.0877297 0.0873644 0.0874628 0.0913919 0.0917269 0.0911495 0.0914565 0.0917269 0.0919903 0.0914565 0.0916989 0.0911495 0.0914565 0.0909103 0.0911903 0.0914565 0.0916989 0.0911903 0.0914119 0.0919903 0.0921965 0.0916989 0.0918895 0.0921965 0.0923566 0.0918895 0.0920386 0.0916989 0.0918895 0.0914119 0.0915869 0.0918895 0.0920386 0.0915869 0.0917245 0.0909103 0.0911903 0.0906733 0.0909275 0.0911903 0.0914119 0.0909275 0.0911287 0.0906733 0.0909275 0.0904375 0.0906671 0.0909275 0.0911287 0.0906671 0.0908485 0.0914119 0.0915869 0.0911287 0.0912881 0.0915869 0.0917245 0.0912881 0.0914139 0.0911287 0.0912881 0.0908485 0.0909923 0.0912881 0.0914139 0.0909923 0.0911063 0.0923566 0.0924798 0.0920386 0.092154 0.0924798 0.0925734 0.092154 0.0922426 0.0920386 0.092154 0.0917245 0.0918317 0.092154 0.0922426 0.0918317 0.0919145 0.0925734 0.0926437 0.0922426 0.0923095 0.0926437 0.0926956 0.0923095 0.0923593 0.0922426 0.0923095 0.0919145 0.0919776 0.0923095 0.0923593 0.0919776 0.092025 0.0917245 0.0918317 0.0914139 0.0915125 0.0918317 0.0919145 0.0915125 0.0915891 0.0914139 0.0915125 0.0911063 0.091196 0.0915125 0.0915891 0.091196 0.0912661 0.0919145 0.0919776 0.0915891 0.0916479 0.0919776 0.092025 0.0916479 0.0916924 0.0915891 0.0916479 0.0912661 0.0913202 0.0916479 0.0916924 0.0913202 0.0913614 0.0904375 0.0906671 0.090202 0.0904083 0.0906671 0.0908485 0.0904083 0.0905706 0.090202 0.0904083 0.0899659 0.0901504 0.0904083 0.0905706 0.0901504 0.0902945 0.0908485 0.0909923 0.0905706 0.0906992 0.0909923 0.0911063 0.0906992 0.0908012 0.0905706 0.0906992 0.0902945 0.0904082 0.0906992 0.0908012 0.0904082 0.0904983 0.0899659 0.0901504 0.0897286 0.0898928 0.0901504 0.0902945 0.0898928 0.0900194 0.0897286 0.0898928 0.0894895 0.0896348 0.0898928 0.0900194 0.0896348 0.089745 0.0902945 0.0904082 0.0900194 0.0901187 0.0904082 0.0904983 0.0901187 0.0901972 0.0900194 0.0901187 0.089745 0.0898303 0.0901187 0.0901972 0.0898303 0.0898973 0.0911063 0.091196 0.0908012 0.0908818 0.091196 0.0912661 0.0908818 0.0909451 0.0908012 0.0908818 0.0904983 0.0905697 0.0908818 0.0909451 0.0905697 0.090626 0.0912661 0.0913202 0.0909451 0.0909943 0.0913202 0.0913614 0.0909943 0.0910319 0.0909451 0.0909943 0.090626 0.0906699 0.0909943 0.0910319 0.0906699 0.0907037 0.0904983 0.0905697 0.0901972 0.0902593 0.0905697 0.090626 0.0902593 0.0903084 0.0901972 0.0902593 0.0898973 0.0899503 0.0902593 0.0903084 0.0899503 0.0899922 0.090626 0.0906699 0.0903084 0.0903469 0.0906699 0.0907037 0.0903469 0.0903767 0.0903084 0.0903469 0.0899922 0.0900251 0.0903469 0.0903767 0.0900251 0.0900507 0.0926956 0.0927331 0.0923593 0.0923958 0.0927331 0.0927597 0.0923958 0.0924219 0.0923593 0.0923958 0.092025 0.09206 0.0923958 0.0924219 0.09206 0.0920853 0.0927597 0.0927781 0.0924219 0.0924402 0.0927781 0.0927903 0.0924402 0.0924525 0.0924219 0.0924402 0.0920853 0.0921031 0.0924402 0.0924525 0.0921031 0.0921154 0.092025 0.09206 0.0916924 0.0917255 0.09206 0.0920853 0.0917255 0.0917496 0.0916924 0.0917255 0.0913614 0.0913923 0.0917255 0.0917496 0.0913923 0.091415 0.0920853 0.0921031 0.0917496 0.0917669 0.0921031 0.0921154 0.0917669 0.0917789 0.0917496 0.0917669 0.091415 0.0914314 0.0917669 0.0917789 0.0914314 0.0914429 0.0927903 0.0927981 0.0924525 0.0924606 0.0927981 0.0928027 0.0924606 0.0924655 0.0924525 0.0924606 0.0921154 0.0921235 0.0924606 0.0924655 0.0921235 0.0921287 0.0928027 0.0928051 0.0924655 0.0924683 0.0928051 0.0928061 0.0924683 0.0924696 0.0924655 0.0924683 0.0921287 0.0921317 0.0924683 0.0924696 0.0921317 0.0921332 0.0921154 0.0921235 0.0917789 0.0917869 0.0921235 0.0921287 0.0917869 0.0917921 0.0917789 0.0917869 0.0914429 0.0914508 0.0917869 0.0917921 0.0914508 0.0914559 0.0921287 0.0921317 0.0917921 0.0917953 0.0921317 0.0921332 0.0917953 0.091797 0.0917921 0.0917953 0.0914559 0.0914591 0.0917953 0.091797 0.0914591 0.0914609 0.0913614 0.0913923 0.0910319 0.0910603 0.0913923 0.091415 0.0910603 0.0910814 0.0910319 0.0910603 0.0907037 0.0907294 0.0910603 0.0910814 0.0907294 0.0907485 0.091415 0.0914314 0.0910814 0.0910967 0.0914314 0.0914429 0.0910967 0.0911075 0.0910814 0.0910967 0.0907485 0.0907626 0.0910967 0.0911075 0.0907626 0.0907726 0.0907037 0.0907294 0.0903767 0.0903994 0.0907294 0.0907485 0.0903994 0.0904165 0.0903767 0.0903994 0.0900507 0.0900703 0.0903994 0.0904165 0.0900703 0.0900852 0.0907485 0.0907626 0.0904165 0.0904291 0.0907626 0.0907726 0.0904291 0.0904382 0.0904165 0.0904291 0.0900852 0.0900962 0.0904291 0.0904382 0.0900962 0.0901042 0.0914429 0.0914508 0.0911075 0.091115 0.0914508 0.0914559 0.091115 0.09112 0.0911075 0.091115 0.0907726 0.0907796 0.091115 0.09112 0.0907796 0.0907843 0.0914559 0.0914591 0.09112 0.0911231 0.0914591 0.0914609 0.0911231 0.091125 0.09112 0.0911231 0.0907843 0.0907874 0.0911231 0.091125 0.0907874 0.0907892 0.0907726 0.0907796 0.0904382 0.0904446 0.0907796 0.0907843 0.0904446 0.0904489 0.0904382 0.0904446 0.0901042 0.0901099 0.0904446 0.0904489 0.0901099 0.0901138 0.0907843 0.0907874 0.0904489 0.0904518 0.0907874 0.0907892 0.0904518 0.0904535 0.0904489 0.0904518 0.0901138 0.0901164 0.0904518 0.0904535 0.0901164 0.090118 0.0894895 0.0896348 0.0892481 0.0893759 0.0896348 0.089745 0.0893759 0.0894706 0.0892481 0.0893759 0.0890038 0.0891158 0.0893759 0.0894706 0.0891158 0.0891959 0.089745 0.0898303 0.0894706 0.0895426 0.0898303 0.0898973 0.0895426 0.0895985 0.0894706 0.0895426 0.0891959 0.0892552 0.0895426 0.0895985 0.0892552 0.0893003 0.0890038 0.0891158 0.0887564 0.0888538 0.0891158 0.0891959 0.0888538 0.0889205 0.0887564 0.0888538 0.0885055 0.0885898 0.0888538 0.0889205 0.0885898 0.0886439 0.0891959 0.0892552 0.0889205 0.0889677 0.0892552 0.0893003 0.0889677 0.0890024 0.0889205 0.0889677 0.0886439 0.0886797 0.0889677 0.0890024 0.0886797 0.0887045 0.0898973 0.0899503 0.0895985 0.0896424 0.0899503 0.0899922 0.0896424 0.089677 0.0895985 0.0896424 0.0893003 0.0893353 0.0896424 0.089677 0.0893353 0.0893627 0.0899922 0.0900251 0.089677 0.0897043 0.0900251 0.0900507 0.0897043 0.0897256 0.089677 0.0897043 0.0893627 0.0893843 0.0897043 0.0897256 0.0893843 0.0894012 0.0893003 0.0893353 0.0890024 0.0890287 0.0893353 0.0893627 0.0890287 0.089049 0.0890024 0.0890287 0.0887045 0.0887223 0.0890287 0.089049 0.0887223 0.0887358 0.0893627 0.0893843 0.089049 0.089065 0.0893843 0.0894012 0.089065 0.0890775 0.089049 0.089065 0.0887358 0.0887461 0.089065 0.0890775 0.0887461 0.0887541 0.0885055 0.0885898 0.0882509 0.0883233 0.0885898 0.0886439 0.0883233 0.0883658 0.0882509 0.0883233 0.0879923 0.0880542 0.0883233 0.0883658 0.0880542 0.0880861 0.0886439 0.0886797 0.0883658 0.088391 0.0886797 0.0887045 0.088391 0.0884063 0.0883658 0.088391 0.0880861 0.0881012 0.088391 0.0884063 0.0881012 0.0881075 0.0879923 0.0880542 0.0877297 0.0877821 0.0880542 0.0880861 0.0877821 0.0878043 0.0877297 0.0877821 0.0874628 0.087507 0.0877821 0.0878043 0.087507 0.0875204 0.0880861 0.0881012 0.0878043 0.0878102 0.0881012 0.0881075 0.0878102 0.087808 0.0878043 0.0878102 0.0875204 0.0875176 0.0878102 0.087808 0.0875176 0.0875075 0.0887045 0.0887223 0.0884063 0.088416 0.0887223 0.0887358 0.088416 0.0884227 0.0884063 0.088416 0.0881075 0.0881095 0.088416 0.0884227 0.0881095 0.0881096 0.0887358 0.0887461 0.0884227 0.0884275 0.0887461 0.0887541 0.0884275 0.0884312 0.0884227 0.0884275 0.0881096 0.088109 0.0884275 0.0884312 0.088109 0.0881084 0.0881075 0.0881095 0.087808 0.0878026 0.0881095 0.0881096 0.0878026 0.0877964 0.087808 0.0878026 0.0875075 0.087495 0.0878026 0.0877964 0.087495 0.0874827 0.0881096 0.088109 0.0877964 0.0877906 0.088109 0.0881084 0.0877906 0.0877857 0.0877964 0.0877906 0.0874827 0.0874719 0.0877906 0.0877857 0.0874719 0.0874629 0.0900507 0.0900703 0.0897256 0.089742 0.0900703 0.0900852 0.089742 0.0897545 0.0897256 0.089742 0.0894012 0.0894143 0.089742 0.0897545 0.0894143 0.0894243 0.0900852 0.0900962 0.0897545 0.0897638 0.0900962 0.0901042 0.0897638 0.0897706 0.0897545 0.0897638 0.0894243 0.0894318 0.0897638 0.0897706 0.0894318 0.0894374 0.0894012 0.0894143 0.0890775 0.0890871 0.0894143 0.0894243 0.0890871 0.0890946 0.0890775 0.0890871 0.0887541 0.0887604 0.0890871 0.0890946 0.0887604 0.0887653 0.0894243 0.0894318 0.0890946 0.0891002 0.0894318 0.0894374 0.0891002 0.0891044 0.0890946 0.0891002 0.0887653 0.088769 0.0891002 0.0891044 0.088769 0.0887718 0.0901042 0.0901099 0.0897706 0.0897755 0.0901099 0.0901138 0.0897755 0.0897789 0.0897706 0.0897755 0.0894374 0.0894414 0.0897755 0.0897789 0.0894414 0.0894442 0.0901138 0.0901164 0.0897789 0.0897812 0.0901164 0.090118 0.0897812 0.0897826 0.0897789 0.0897812 0.0894442 0.0894461 0.0897812 0.0897826 0.0894461 0.0894473 0.0894374 0.0894414 0.0891044 0.0891075 0.0894414 0.0894442 0.0891075 0.0891097 0.0891044 0.0891075 0.0887718 0.0887738 0.0891075 0.0891097 0.0887738 0.0887753 0.0894442 0.0894461 0.0891097 0.0891112 0.0894461 0.0894473 0.0891112 0.0891122 0.0891097 0.0891112 0.0887753 0.0887764 0.0891112 0.0891122 0.0887764 0.0887771 0.0887541 0.0887604 0.0884312 0.088434 0.0887604 0.0887653 0.088434 0.0884362 0.0884312 0.088434 0.0881084 0.0881078 0.088434 0.0884362 0.0881078 0.0881074 0.0887653 0.088769 0.0884362 0.088438 0.088769 0.0887718 0.088438 0.0884393 0.0884362 0.088438 0.0881074 0.0881072 0.088438 0.0884393 0.0881072 0.0881071 0.0881084 0.0881078 0.0877857 0.0877817 0.0881078 0.0881074 0.0877817 0.0877788 0.0877857 0.0877817 0.0874629 0.0874557 0.0877817 0.0877788 0.0874557 0.0874502 0.0881074 0.0881072 0.0877788 0.0877766 0.0881072 0.0881071 0.0877766 0.087775 0.0877788 0.0877766 0.0874502 0.087446 0.0877766 0.087775 0.087446 0.087443 0.0887718 0.0887738 0.0884393 0.0884404 0.0887738 0.0887753 0.0884404 0.0884411 0.0884393 0.0884404 0.0881071 0.0881071 0.0884404 0.0884411 0.0881071 0.0881071 0.0887753 0.0887764 0.0884411 0.0884417 0.0887764 0.0887771 0.0884417 0.0884421 0.0884411 0.0884417 0.0881071 0.0881071 0.0884417 0.0884421 0.0881071 0.0881072 0.0881071 0.0881071 0.087775 0.0877739 0.0881071 0.0881071 0.0877739 0.0877731 0.087775 0.0877739 0.087443 0.0874408 0.0877739 0.0877731 0.0874408 0.0874393 0.0881071 0.0881071 0.0877731 0.0877727 0.0881071 0.0881072 0.0877727 0.0877724 