# vtk DataFile Version 3.0
#This file was generated by the deal.II library on 2022/1/6 at 22:51:51
ASCII
DATASET UNSTRUCTURED_GRID

POINTS 16384 double
0 0 0
0.1875 0 0
0 0.046875 0
0.1875 0.046875 0
0.1875 0 0
0.375 0 0
0.1875 0.046875 0
0.375 0.046875 0
0 0.046875 0
0.1875 0.046875 0
0 0.09375 0
0.1875 0.09375 0
0.1875 0.046875 0
0.375 0.046875 0
0.1875 0.09375 0
0.375 0.09375 0
0.375 0 0
0.5625 0 0
0.375 0.046875 0
0.5625 0.046875 0
0.5625 0 0
0.75 0 0
0.5625 0.046875 0
0.75 0.046875 0
0.375 0.046875 0
0.5625 0.046875 0
0.375 0.09375 0
0.5625 0.09375 0
0.5625 0.046875 0
0.75 0.046875 0
0.5625 0.09375 0
0.75 0.09375 0
0 0.09375 0
0.1875 0.09375 0
0 0.140625 0
0.1875 0.140625 0
0.1875 0.09375 0
0.375 0.09375 0
0.1875 0.140625 0
0.375 0.140625 0
0 0.140625 0
0.1875 0.140625 0
0 0.1875 0
0.1875 0.1875 0
0.1875 0.140625 0
0.375 0.140625 0
0.1875 0.1875 0
0.375 0.1875 0
0.375 0.09375 0
0.5625 0.09375 0
0.375 0.140625 0
0.5625 0.140625 0
0.5625 0.09375 0
0.75 0.09375 0
0.5625 0.140625 0
0.75 0.140625 0
0.375 0.140625 0
0.5625 0.140625 0
0.375 0.1875 0
0.5625 0.1875 0
0.5625 0.140625 0
0.75 0.140625 0
0.5625 0.1875 0
0.75 0.1875 0
0.75 0 0
0.9375 0 0
0.75 0.046875 0
0.9375 0.046875 0
0.9375 0 0
1.125 0 0
0.9375 0.046875 0
1.125 0.046875 0
0.75 0.046875 0
0.9375 0.046875 0
0.75 0.09375 0
0.9375 0.09375 0
0.9375 0.046875 0
1.125 0.046875 0
0.9375 0.09375 0
1.125 0.09375 0
1.125 0 0
1.3125 0 0
1.125 0.046875 0
1.3125 0.046875 0
1.3125 0 0
1.5 0 0
1.3125 0.046875 0
1.5 0.046875 0
1.125 0.046875 0
1.3125 0.046875 0
1.125 0.09375 0
1.3125 0.09375 0
1.3125 0.046875 0
1.5 0.046875 0
1.3125 0.09375 0
1.5 0.09375 0
0.75 0.09375 0
0.9375 0.09375 0
0.75 0.140625 0
0.9375 0.140625 0
0.9375 0.09375 0
1.125 0.09375 0
0.9375 0.140625 0
1.125 0.140625 0
0.75 0.140625 0
0.9375 0.140625 0
0.75 0.1875 0
0.9375 0.1875 0
0.9375 0.140625 0
1.125 0.140625 0
0.9375 0.1875 0
1.125 0.1875 0
1.125 0.09375 0
1.3125 0.09375 0
1.125 0.140625 0
1.3125 0.140625 0
1.3125 0.09375 0
1.5 0.09375 0
1.3125 0.140625 0
1.5 0.140625 0
1.125 0.140625 0
1.3125 0.140625 0
1.125 0.1875 0
1.3125 0.1875 0
1.3125 0.140625 0
1.5 0.140625 0
1.3125 0.1875 0
1.5 0.1875 0
0 0.1875 0
0.1875 0.1875 0
0 0.234375 0
0.1875 0.234375 0
0.1875 0.1875 0
0.375 0.1875 0
0.1875 0.234375 0
0.375 0.234375 0
0 0.234375 0
0.1875 0.234375 0
0 0.28125 0
0.1875 0.28125 0
0.1875 0.234375 0
0.375 0.234375 0
0.1875 0.28125 0
0.375 0.28125 0
0.375 0.1875 0
0.5625 0.1875 0
0.375 0.234375 0
0.5625 0.234375 0
0.5625 0.1875 0
0.75 0.1875 0
0.5625 0.234375 0
0.75 0.234375 0
0.375 0.234375 0
0.5625 0.234375 0
0.375 0.28125 0
0.5625 0.28125 0
0.5625 0.234375 0
0.75 0.234375 0
0.5625 0.28125 0
0.75 0.28125 0
0 0.28125 0
0.1875 0.28125 0
0 0.328125 0
0.1875 0.328125 0
0.1875 0.28125 0
0.375 0.28125 0
0.1875 0.328125 0
0.375 0.328125 0
0 0.328125 0
0.1875 0.328125 0
0 0.375 0
0.1875 0.375 0
0.1875 0.328125 0
0.375 0.328125 0
0.1875 0.375 0
0.375 0.375 0
0.375 0.28125 0
0.5625 0.28125 0
0.375 0.328125 0
0.5625 0.328125 0
0.5625 0.28125 0
0.75 0.28125 0
0.5625 0.328125 0
0.75 0.328125 0
0.375 0.328125 0
0.5625 0.328125 0
0.375 0.375 0
0.5625 0.375 0
0.5625 0.328125 0
0.75 0.328125 0
0.5625 0.375 0
0.75 0.375 0
0.75 0.1875 0
0.9375 0.1875 0
0.75 0.234375 0
0.9375 0.234375 0
0.9375 0.1875 0
1.125 0.1875 0
0.9375 0.234375 0
1.125 0.234375 0
0.75 0.234375 0
0.9375 0.234375 0
0.75 0.28125 0
0.9375 0.28125 0
0.9375 0.234375 0
1.125 0.234375 0
0.9375 0.28125 0
1.125 0.28125 0
1.125 0.1875 0
1.3125 0.1875 0
1.125 0.234375 0
1.3125 0.234375 0
1.3125 0.1875 0
1.5 0.1875 0
1.3125 0.234375 0
1.5 0.234375 0
1.125 0.234375 0
1.3125 0.234375 0
1.125 0.28125 0
1.3125 0.28125 0
1.3125 0.234375 0
1.5 0.234375 0
1.3125 0.28125 0
1.5 0.28125 0
0.75 0.28125 0
0.9375 0.28125 0
0.75 0.328125 0
0.9375 0.328125 0
0.9375 0.28125 0
1.125 0.28125 0
0.9375 0.328125 0
1.125 0.328125 0
0.75 0.328125 0
0.9375 0.328125 0
0.75 0.375 0
0.9375 0.375 0
0.9375 0.328125 0
1.125 0.328125 0
0.9375 0.375 0
1.125 0.375 0
1.125 0.28125 0
1.3125 0.28125 0
1.125 0.328125 0
1.3125 0.328125 0
1.3125 0.28125 0
1.5 0.28125 0
1.3125 0.328125 0
1.5 0.328125 0
1.125 0.328125 0
1.3125 0.328125 0
1.125 0.375 0
1.3125 0.375 0
1.3125 0.328125 0
1.5 0.328125 0
1.3125 0.375 0
1.5 0.375 0
1.5 0 0
1.6875 0 0
1.5 0.046875 0
1.6875 0.046875 0
1.6875 0 0
1.875 0 0
1.6875 0.046875 0
1.875 0.046875 0
1.5 0.046875 0
1.6875 0.046875 0
1.5 0.09375 0
1.6875 0.09375 0
1.6875 0.046875 0
1.875 0.046875 0
1.6875 0.09375 0
1.875 0.09375 0
1.875 0 0
2.0625 0 0
1.875 0.046875 0
2.0625 0.046875 0
2.0625 0 0
2.25 0 0
2.0625 0.046875 0
2.25 0.046875 0
1.875 0.046875 0
2.0625 0.046875 0
1.875 0.09375 0
2.0625 0.09375 0
2.0625 0.046875 0
2.25 0.046875 0
2.0625 0.09375 0
2.25 0.09375 0
1.5 0.09375 0
1.6875 0.09375 0
1.5 0.140625 0
1.6875 0.140625 0
1.6875 0.09375 0
1.875 0.09375 0
1.6875 0.140625 0
1.875 0.140625 0
1.5 0.140625 0
1.6875 0.140625 0
1.5 0.1875 0
1.6875 0.1875 0
1.6875 0.140625 0
1.875 0.140625 0
1.6875 0.1875 0
1.875 0.1875 0
1.875 0.09375 0
2.0625 0.09375 0
1.875 0.140625 0
2.0625 0.140625 0
2.0625 0.09375 0
2.25 0.09375 0
2.0625 0.140625 0
2.25 0.140625 0
1.875 0.140625 0
2.0625 0.140625 0
1.875 0.1875 0
2.0625 0.1875 0
2.0625 0.140625 0
2.25 0.140625 0
2.0625 0.1875 0
2.25 0.1875 0
2.25 0 0
2.4375 0 0
2.25 0.046875 0
2.4375 0.046875 0
2.4375 0 0
2.625 0 0
2.4375 0.046875 0
2.625 0.046875 0
2.25 0.046875 0
2.4375 0.046875 0
2.25 0.09375 0
2.4375 0.09375 0
2.4375 0.046875 0
2.625 0.046875 0
2.4375 0.09375 0
2.625 0.09375 0
2.625 0 0
2.8125 0 0
2.625 0.046875 0
2.8125 0.046875 0
2.8125 0 0
3 0 0
2.8125 0.046875 0
3 0.046875 0
2.625 0.046875 0
2.8125 0.046875 0
2.625 0.09375 0
2.8125 0.09375 0
2.8125 0.046875 0
3 0.046875 0
2.8125 0.09375 0
3 0.09375 0
2.25 0.09375 0
2.4375 0.09375 0
2.25 0.140625 0
2.4375 0.140625 0
2.4375 0.09375 0
2.625 0.09375 0
2.4375 0.140625 0
2.625 0.140625 0
2.25 0.140625 0
2.4375 0.140625 0
2.25 0.1875 0
2.4375 0.1875 0
2.4375 0.140625 0
2.625 0.140625 0
2.4375 0.1875 0
2.625 0.1875 0
2.625 0.09375 0
2.8125 0.09375 0
2.625 0.140625 0
2.8125 0.140625 0
2.8125 0.09375 0
3 0.09375 0
2.8125 0.140625 0
3 0.140625 0
2.625 0.140625 0
2.8125 0.140625 0
2.625 0.1875 0
2.8125 0.1875 0
2.8125 0.140625 0
3 0.140625 0
2.8125 0.1875 0
3 0.1875 0
1.5 0.1875 0
1.6875 0.1875 0
1.5 0.234375 0
1.6875 0.234375 0
1.6875 0.1875 0
1.875 0.1875 0
1.6875 0.234375 0
1.875 0.234375 0
1.5 0.234375 0
1.6875 0.234375 0
1.5 0.28125 0
1.6875 0.28125 0
1.6875 0.234375 0
1.875 0.234375 0
1.6875 0.28125 0
1.875 0.28125 0
1.875 0.1875 0
2.0625 0.1875 0
1.875 0.234375 0
2.0625 0.234375 0
2.0625 0.1875 0
2.25 0.1875 0
2.0625 0.234375 0
2.25 0.234375 0
1.875 0.234375 0
2.0625 0.234375 0
1.875 0.28125 0
2.0625 0.28125 0
2.0625 0.234375 0
2.25 0.234375 0
2.0625 0.28125 0
2.25 0.28125 0
1.5 0.28125 0
1.6875 0.28125 0
1.5 0.328125 0
1.6875 0.328125 0
1.6875 0.28125 0
1.875 0.28125 0
1.6875 0.328125 0
1.875 0.328125 0
1.5 0.328125 0
1.6875 0.328125 0
1.5 0.375 0
1.6875 0.375 0
1.6875 0.328125 0
1.875 0.328125 0
1.6875 0.375 0
1.875 0.375 0
1.875 0.28125 0
2.0625 0.28125 0
1.875 0.328125 0
2.0625 0.328125 0
2.0625 0.28125 0
2.25 0.28125 0
2.0625 0.328125 0
2.25 0.328125 0
1.875 0.328125 0
2.0625 0.328125 0
1.875 0.375 0
2.0625 0.375 0
2.0625 0.328125 0
2.25 0.328125 0
2.0625 0.375 0
2.25 0.375 0
2.25 0.1875 0
2.4375 0.1875 0
2.25 0.234375 0
2.4375 0.234375 0
2.4375 0.1875 0
2.625 0.1875 0
2.4375 0.234375 0
2.625 0.234375 0
2.25 0.234375 0
2.4375 0.234375 0
2.25 0.28125 0
2.4375 0.28125 0
2.4375 0.234375 0
2.625 0.234375 0
2.4375 0.28125 0
2.625 0.28125 0
2.625 0.1875 0
2.8125 0.1875 0
2.625 0.234375 0
2.8125 0.234375 0
2.8125 0.1875 0
3 0.1875 0
2.8125 0.234375 0
3 0.234375 0
2.625 0.234375 0
2.8125 0.234375 0
2.625 0.28125 0
2.8125 0.28125 0
2.8125 0.234375 0
3 0.234375 0
2.8125 0.28125 0
3 0.28125 0
2.25 0.28125 0
2.4375 0.28125 0
2.25 0.328125 0
2.4375 0.328125 0
2.4375 0.28125 0
2.625 0.28125 0
2.4375 0.328125 0
2.625 0.328125 0
2.25 0.328125 0
2.4375 0.328125 0
2.25 0.375 0
2.4375 0.375 0
2.4375 0.328125 0
2.625 0.328125 0
2.4375 0.375 0
2.625 0.375 0
2.625 0.28125 0
2.8125 0.28125 0
2.625 0.328125 0
2.8125 0.328125 0
2.8125 0.28125 0
3 0.28125 0
2.8125 0.328125 0
3 0.328125 0
2.625 0.328125 0
2.8125 0.328125 0
2.625 0.375 0
2.8125 0.375 0
2.8125 0.328125 0
3 0.328125 0
2.8125 0.375 0
3 0.375 0
0 0.375 0
0.1875 0.375 0
0 0.421875 0
0.1875 0.421875 0
0.1875 0.375 0
0.375 0.375 0
0.1875 0.421875 0
0.375 0.421875 0
0 0.421875 0
0.1875 0.421875 0
0 0.46875 0
0.1875 0.46875 0
0.1875 0.421875 0
0.375 0.421875 0
0.1875 0.46875 0
0.375 0.46875 0
0.375 0.375 0
0.5625 0.375 0
0.375 0.421875 0
0.5625 0.421875 0
0.5625 0.375 0
0.75 0.375 0
0.5625 0.421875 0
0.75 0.421875 0
0.375 0.421875 0
0.5625 0.421875 0
0.375 0.46875 0
0.5625 0.46875 0
0.5625 0.421875 0
0.75 0.421875 0
0.5625 0.46875 0
0.75 0.46875 0
0 0.46875 0
0.1875 0.46875 0
0 0.515625 0
0.1875 0.515625 0
0.1875 0.46875 0
0.375 0.46875 0
0.1875 0.515625 0
0.375 0.515625 0
0 0.515625 0
0.1875 0.515625 0
0 0.5625 0
0.1875 0.5625 0
0.1875 0.515625 0
0.375 0.515625 0
0.1875 0.5625 0
0.375 0.5625 0
0.375 0.46875 0
0.5625 0.46875 0
0.375 0.515625 0
0.5625 0.515625 0
0.5625 0.46875 0
0.75 0.46875 0
0.5625 0.515625 0
0.75 0.515625 0
0.375 0.515625 0
0.5625 0.515625 0
0.375 0.5625 0
0.5625 0.5625 0
0.5625 0.515625 0
0.75 0.515625 0
0.5625 0.5625 0
0.75 0.5625 0
0.75 0.375 0
0.9375 0.375 0
0.75 0.421875 0
0.9375 0.421875 0
0.9375 0.375 0
1.125 0.375 0
0.9375 0.421875 0
1.125 0.421875 0
0.75 0.421875 0
0.9375 0.421875 0
0.75 0.46875 0
0.9375 0.46875 0
0.9375 0.421875 0
1.125 0.421875 0
0.9375 0.46875 0
1.125 0.46875 0
1.125 0.375 0
1.3125 0.375 0
1.125 0.421875 0
1.3125 0.421875 0
1.3125 0.375 0
1.5 0.375 0
1.3125 0.421875 0
1.5 0.421875 0
1.125 0.421875 0
1.3125 0.421875 0
1.125 0.46875 0
1.3125 0.46875 0
1.3125 0.421875 0
1.5 0.421875 0
1.3125 0.46875 0
1.5 0.46875 0
0.75 0.46875 0
0.9375 0.46875 0
0.75 0.515625 0
0.9375 0.515625 0
0.9375 0.46875 0
1.125 0.46875 0
0.9375 0.515625 0
1.125 0.515625 0
0.75 0.515625 0
0.9375 0.515625 0
[...]
POINT_DATA 16384
SCALARS x_displacement double 1
LOOKUP_TABLE default
0 0.0332112 0 0.0297426 0.0332112 0.0585005 0.0297426 0.0569212 0 0.0297426 0 0.0273607 0.0297426 0.0569212 0.0273607 0.0542326 0.0585005 0.0741445 0.0569212 0.0729319 0.0741445 0.0799651 0.0729319 0.0792403 0.0569212 0.0729319 0.0542326 0.071022 0.0729319 0.0792403 0.071022 0.0780661 0 0.0273607 0 0.0253995 0.0273607 0.0542326 0.0253995 0.0507376 0 0.0253995 0 0.02375 0.0253995 0.0507376 0.02375 0.0471756 0.0542326 0.071022 0.0507376 0.0683151 0.071022 0.0780661 0.0683151 0.0764809 0.0507376 0.0683151 0.0471756 0.0646637 0.0683151 0.0764809 0.0646637 0.074617 0.0799651 0.0853187 0.0792403 0.0850472 0.0853187 0.0911766 0.0850472 0.0912349 0.0792403 0.0850472 0.0780661 0.0845322 0.0850472 0.0912349 0.0845322 0.091107 0.0911766 0.0970794 0.0912349 0.0972693 0.0970794 0.102664 0.0972693 0.102907 0.0912349 0.0972693 0.091107 0.0973286 0.0972693 0.102907 0.0973286 0.10305 0.0780661 0.0845322 0.0764809 0.0838147 0.0845322 0.091107 0.0838147 0.0908211 0.0764809 0.0838147 0.074617 0.0829417 0.0838147 0.0908211 0.0829417 0.0903994 0.091107 0.0973286 0.0908211 0.0972672 0.0973286 0.10305 0.0972672 0.103103 0.0908211 0.0972672 0.0903994 0.0970995 0.0972672 0.103103 0.0970995 0.103071 0 0.02375 0 0.0223527 0.02375 0.0471756 0.0223527 0.0438385 0 0.0223527 0 0.0211234 0.0223527 0.0438385 0.0211234 0.0411943 0.0471756 0.0646637 0.0438385 0.060949 0.0646637 0.074617 0.060949 0.0727103 0.0438385 0.060949 0.0411943 0.0579762 0.060949 0.0727103 0.0579762 0.0707971 0 0.0211234 0 0.0200875 0.0211234 0.0411943 0.0200875 0.0390981 0 0.0200875 0 0.0192346 0.0200875 0.0390981 0.0192346 0.0374284 0.0411943 0.0579762 0.0390981 0.0556016 0.0579762 0.0707971 0.0556016 0.0690051 0.0390981 0.0556016 0.0374284 0.0536635 0.0556016 0.0690051 0.0536635 0.0673833 0.074617 0.0829417 0.0727103 0.0819366 0.0829417 0.0903994 0.0819366 0.0898699 0.0727103 0.0819366 0.0707971 0.0808568 0.0819366 0.0898699 0.0808568 0.0892542 0.0903994 0.0970995 0.0898699 0.0968388 0.0970995 0.103071 0.0968388 0.102962 0.0898699 0.0968388 0.0892542 0.0964995 0.0968388 0.102962 0.0964995 0.102786 0.0707971 0.0808568 0.0690051 0.0797359 0.0808568 0.0892542 0.0797359 0.0885767 0.0690051 0.0797359 0.0673833 0.0786156 0.0797359 0.0885767 0.0786156 0.0878569 0.0892542 0.0964995 0.0885767 0.0960948 0.0964995 0.102786 0.0960948 0.102551 0.0885767 0.0960948 0.0878569 0.0956386 0.0960948 0.102551 0.0956386 0.102265 0.102664 0.107781 0.102907 0.108031 0.107781 0.112374 0.108031 0.112602 0.102907 0.108031 0.10305 0.108205 0.108031 0.112602 0.108205 0.112771 0.112374 0.11643 0.112602 0.116619 0.11643 0.119965 0.116619 0.120104 0.112602 0.116619 0.112771 0.116762 0.116619 0.120104 0.116762 0.12021 0.10305 0.108205 0.103103 0.108306 0.108205 0.112771 0.108306 0.112884 0.103103 0.108306 0.103071 0.108341 0.108306 0.112884 0.108341 0.112944 0.112771 0.116762 0.112884 0.116863 0.116762 0.12021 0.116863 0.120282 0.112884 0.116863 0.112944 0.116921 0.116863 0.120282 0.116921 0.120322 0.119965 0.123009 0.120104 0.123095 0.123009 0.125602 0.123095 0.125633 0.120104 0.123095 0.12021 0.123155 0.123095 0.125633 0.123155 0.125646 0.125602 0.127789 0.125633 0.127766 0.127789 0.129614 0.127766 0.129542 0.125633 0.127766 0.125646 0.127731 0.127766 0.129542 0.127731 0.129462 0.12021 0.123155 0.120282 0.12319 0.123155 0.125646 0.12319 0.12564 0.120282 0.12319 0.120322 0.123201 0.12319 0.12564 0.123201 0.125616 0.125646 0.127731 0.12564 0.127684 0.127731 0.129462 0.127684 0.129373 0.12564 0.127684 0.125616 0.127623 0.127684 0.129373 0.127623 0.129276 0.103071 0.108341 0.102962 0.108314 0.108341 0.112944 0.108314 0.112954 0.102962 0.108314 0.102786 0.108231 0.108314 0.112954 0.108231 0.112918 0.112944 0.116921 0.112954 0.116939 0.116921 0.120322 0.116939 0.12033 0.112954 0.116939 0.112918 0.11692 0.116939 0.12033 0.11692 0.120309 0.102786 0.108231 0.102551 0.108096 0.108231 0.112918 0.108096 0.112839 0.102551 0.108096 0.102265 0.107916 0.108096 0.112839 0.107916 0.11272 0.112918 0.11692 0.112839 0.116866 0.11692 0.120309 0.116866 0.120259 0.112839 0.116866 0.11272 0.116779 0.116866 0.120259 0.116779 0.120182 0.120322 0.123201 0.12033 0.123188 0.123201 0.125616 0.123188 0.125574 0.12033 0.123188 0.120309 0.123151 0.123188 0.125574 0.123151 0.125515 0.125616 0.127623 0.125574 0.127549 0.127623 0.129276 0.127549 0.129169 0.125574 0.127549 0.125515 0.127462 0.127549 0.129169 0.127462 0.129052 0.120309 0.123151 0.120259 0.123092 0.123151 0.125515 0.123092 0.125437 0.120259 0.123092 0.120182 0.123011 0.123092 0.125437 0.123011 0.125343 0.125515 0.127462 0.125437 0.127362 0.127462 0.129052 0.127362 0.128926 0.125437 0.127362 0.125343 0.127248 0.127362 0.128926 0.127248 0.12879 0 0.0192346 0 0.0185405 0.0192346 0.0374284 0.0185405 0.0360895 0 0.0185405 0 0.017978 0.0185405 0.0360895 0.017978 0.0350087 0.0374284 0.0536635 0.0360895 0.0520618 0.0536635 0.0673833 0.0520618 0.0659365 0.0360895 0.0520618 0.0350087 0.0507269 0.0520618 0.0659365 0.0507269 0.0646543 0 0.017978 0 0.0175219 0.017978 0.0350087 0.0175219 0.0341301 0 0.0175219 0 0.0171506 0.0175219 0.0341301 0.0171506 0.0334108 0.0350087 0.0507269 0.0341301 0.0496069 0.0507269 0.0646543 0.0496069 0.0635213 0.0341301 0.0496069 0.0334108 0.0486616 0.0496069 0.0635213 0.0486616 0.0625212 0.0673833 0.0786156 0.0659365 0.0775286 0.0786156 0.0878569 0.0775286 0.0871135 0.0659365 0.0775286 0.0646543 0.0764951 0.0775286 0.0871135 0.0764951 0.0863636 0.0878569 0.0956386 0.0871135 0.095143 0.0956386 0.102265 0.095143 0.101936 0.0871135 0.095143 0.0863636 0.0946192 0.095143 0.101936 0.0946192 0.101573 0.0646543 0.0764951 0.0635213 0.0755258 0.0764951 0.0863636 0.0755258 0.085621 0.0635213 0.0755258 0.0625212 0.0746251 0.0755258 0.085621 0.0746251 0.0848962 0.0863636 0.0946192 0.085621 0.0940774 0.0946192 0.101573 0.0940774 0.101182 0.085621 0.0940774 0.0848962 0.0935264 0.0940774 0.101182 0.0935264 0.100771 0 0.0171506 0 0.0168468 0.0171506 0.0334108 0.0168468 0.0328178 0 0.0168468 0 0.0165965 0.0168468 0.0328178 0.0165965 0.0323252 0.0334108 0.0486616 0.0328178 0.0478595 0.0486616 0.0625212 0.0478595 0.0616383 0.0328178 0.0478595 0.0323252 0.0471752 0.0478595 0.0616383 0.0471752 0.0608579 0 0.0165965 0 0.0163887 0.0165965 0.0323252 0.0163887 0.0319128 0 0.0163887 0 0.0162147 0.0163887 0.0319128 0.0162147 0.0315648 0.0323252 0.0471752 0.0319128 0.0465882 0.0471752 0.0608579 0.0465882 0.0601668 0.0319128 0.0465882 0.0315648 0.0460818 0.0465882 0.0601668 0.0460818 0.0595536 0.0625212 0.0746251 0.0616383 0.0737933 0.0746251 0.0848962 0.0737933 0.0841965 0.0616383 0.0737933 0.0608579 0.0730283 0.0737933 0.0841965 0.0730283 0.0835268 0.0848962 0.0935264 0.0841965 0.0929738 0.0935264 0.100771 0.0929738 0.100345 0.0841965 0.0929738 0.0835268 0.0924258 0.0929738 0.100345 0.0924258 0.0999093 0.0608579 0.0730283 0.0601668 0.0723265 0.0730283 0.0835268 0.0723265 0.0828898 0.0601668 0.0723265 0.0595536 0.0716836 0.0723265 0.0828898 0.0716836 0.082287 0.0835268 0.0924258 0.0828898 0.0918872 0.0924258 0.0999093 0.0918872 0.099469 0.0828898 0.0918872 0.082287 0.0913616 0.0918872 0.099469 0.0913616 0.0990279 0.102265 0.107916 0.101936 0.107696 0.107916 0.11272 0.107696 0.112566 0.101936 0.107696 0.101573 0.107441 0.107696 0.112566 0.107441 0.11238 0.11272 0.116779 0.112566 0.116661 0.116779 0.120182 0.116661 0.120079 0.112566 0.116661 0.11238 0.116515 0.116661 0.120079 0.116515 0.119953 0.101573 0.107441 0.101182 0.107156 0.107441 0.11238 0.107156 0.112166 0.101182 0.107156 0.100771 0.106847 0.107156 0.112166 0.106847 0.111926 0.11238 0.116515 0.112166 0.116344 0.116515 0.119953 0.116344 0.119804 0.112166 0.116344 0.111926 0.116149 0.116344 0.119804 0.116149 0.119635 0.120182 0.123011 0.120079 0.122909 0.123011 0.125343 0.122909 0.125232 0.120079 0.122909 0.119953 0.122787 0.122909 0.125232 0.122787 0.125105 0.125343 0.127248 0.125232 0.127121 0.127248 0.12879 0.127121 0.128644 0.125232 0.127121 0.125105 0.126982 0.127121 0.128644 0.126982 0.128488 0.119953 0.122787 0.119804 0.122647 0.122787 0.125105 0.122647 0.124962 0.119804 0.122647 0.119635 0.122489 0.122647 0.124962 0.122489 0.124804 0.125105 0.126982 0.124962 0.12683 0.126982 0.128488 0.12683 0.128322 0.124962 0.12683 0.124804 0.126665 0.12683 0.128322 0.126665 0.128147 0.100771 0.106847 0.100345 0.106518 0.106847 0.111926 0.106518 0.111666 0.100345 0.106518 0.0999093 0.106172 0.106518 0.111666 0.106172 0.111387 0.111926 0.116149 0.111666 0.115934 0.116149 0.119635 0.115934 0.119447 0.111666 0.115934 0.111387 0.115701 0.115934 0.119447 0.115701 0.119242 0.0999093 0.106172 0.099469 0.105815 0.106172 0.111387 0.105815 0.111092 0.099469 0.105815 0.0990279 0.105448 0.105815 0.111092 0.105448 0.110785 0.111387 0.115701 0.111092 0.115451 0.115701 0.119242 0.115451 0.119021 0.111092 0.115451 0.110785 0.115187 0.115451 0.119021 0.115187 0.118786 0.119635 0.122489 0.119447 0.122314 0.122489 0.124804 0.122314 0.124632 0.119447 0.122314 0.119242 0.122124 0.122314 0.124632 0.122124 0.124447 0.124804 0.126665 0.124632 0.126489 0.126665 0.128147 0.126489 0.127961 0.124632 0.126489 0.124447 0.126301 0.126489 0.127961 0.126301 0.127766 0.119242 0.122124 0.119021 0.121919 0.122124 0.124447 0.121919 0.124249 0.119021 0.121919 0.118786 0.121701 0.121919 0.124249 0.121701 0.124039 0.124447 0.126301 0.124249 0.126103 0.126301 0.127766 0.126103 0.127562 0.124249 0.126103 0.124039 0.125893 0.126103 0.127562 0.125893 0.127348 0.129614 0.131125 0.129542 0.131007 0.131125 0.132363 0.131007 0.132205 0.129542 0.131007 0.129462 0.130885 0.131007 0.132205 0.130885 0.132045 0.132363 0.133369 0.132205 0.133176 0.133369 0.13418 0.133176 0.133957 0.132205 0.133176 0.132045 0.132983 0.133176 0.133957 0.132983 0.133735 0.129462 0.130885 0.129373 0.130757 0.130885 0.132045 0.130757 0.131882 0.129373 0.130757 0.129276 0.130625 0.130757 0.131882 0.130625 0.131717 0.132045 0.132983 0.131882 0.132789 0.132983 0.133735 0.132789 0.133514 0.131882 0.132789 0.131717 0.132594 0.132789 0.133514 0.132594 0.133293 0.13418 0.134828 0.133957 0.13458 0.134828 0.135342 0.13458 0.135073 0.133957 0.13458 0.133735 0.134334 0.13458 0.135073 0.134334 0.134807 0.135342 0.135746 0.135073 0.13546 0.135746 0.136061 0.13546 0.135762 0.135073 0.13546 0.134807 0.135177 0.13546 0.135762 0.135177 0.135466 0.133735 0.134334 0.133514 0.134089 0.134334 0.134807 0.134089 0.134543 0.133514 0.134089 0.133293 0.133846 0.134089 0.134543 0.133846 0.13428 0.134807 0.135177 0.134543 0.134897 0.135177 0.135466 0.134897 0.135172 0.134543 0.134897 0.13428 0.134618 0.134897 0.135172 0.134618 0.13488 0.129276 0.130625 0.129169 0.130486 0.130625 0.131717 0.130486 0.131548 0.129169 0.130486 0.129052 0.13034 0.130486 0.131548 0.13034 0.131374 0.131717 0.132594 0.131548 0.132397 0.132594 0.133293 0.132397 0.133071 0.131548 0.132397 0.131374 0.132198 0.132397 0.133071 0.132198 0.132849 0.129052 0.13034 0.128926 0.130188 0.13034 0.131374 0.130188 0.131196 0.128926 0.130188 0.12879 0.130028 0.130188 0.131196 0.130028 0.131013 0.131374 0.132198 0.131196 0.131996 0.132198 0.132849 0.131996 0.132624 0.131196 0.131996 0.131013 0.13179 0.131996 0.132624 0.13179 0.132398 0.133293 0.133846 0.133071 0.133603 0.133846 0.13428 0.133603 0.134018 0.133071 0.133603 0.132849 0.133359 0.133603 0.134018 0.133359 0.133757 0.13428 0.134618 0.134018 0.134341 0.134618 0.13488 0.134341 0.13459 0.134018 0.134341 0.133757 0.134065 0.134341 0.13459 0.134065 0.134301 0.132849 0.133359 0.132624 0.133115 0.133359 0.133757 0.133115 0.133496 0.132624 0.133115 0.132398 0.132871 0.133115 0.133496 0.132871 0.133235 0.133757 0.134065 0.133496 0.133789 0.134065 0.134301 0.133789 0.134013 0.133496 0.133789 0.133235 0.133514 0.133789 0.134013 0.133514 0.133726 0.136061 0.136305 0.135762 0.135995 0.136305 0.136492 0.135995 0.136175 0.135762 0.135995 0.135466 0.135689 0.135995 0.136175 0.135689 0.13586 0.136492 0.136634 0.136175 0.136311 0.136634 0.136741 0.136311 0.136414 0.136175 0.136311 0.13586 0.13599 0.136311 0.136414 0.13599 0.136088 0.135466 0.135689 0.135172 0.135385 0.135689 0.13586 0.135385 0.135547 0.135172 0.135385 0.13488 0.135082 0.135385 0.135547 0.135082 0.135236 0.13586 0.13599 0.135547 0.135671 0.13599 0.136088 0.135671 0.135764 0.135547 0.135671 0.135236 0.135354 0.135671 0.135764 0.135354 0.135442 0.136741 0.136822 0.136414 0.136491 0.136822 0.136881 0.136491 0.136548 0.136414 0.136491 0.136088 0.136162 0.136491 0.136548 0.136162 0.136217 0.136881 0.136925 0.136548 0.13659 0.136925 0.136956 0.13659 0.136621 0.136548 0.13659 0.136217 0.136257 0.13659 0.136621 0.136257 0.136286 0.136088 0.136162 0.135764 0.135834 0.136162 0.136217 0.135834 0.135886 0.135764 0.135834 0.135442 0.135508 0.135834 0.135886 0.135508 0.135557 0.136217 0.136257 0.135886 0.135925 0.136257 0.136286 0.135925 0.135953 0.135886 0.135925 0.135557 0.135594 0.135925 0.135953 0.135594 0.13562 0.13488 0.135082 0.13459 0.134781 0.135082 0.135236 0.134781 0.134927 0.13459 0.134781 0.134301 0.134482 0.134781 0.134927 0.134482 0.134619 0.135236 0.135354 0.134927 0.135038 0.135354 0.135442 0.135038 0.135121 0.134927 0.135038 0.134619 0.134723 0.135038 0.135121 0.134723 0.1348 0.134301 0.134482 0.134013 0.134184 0.134482 0.134619 0.134184 0.134312 0.134013 0.134184 0.133726 0.133886 0.134184 0.134312 0.133886 0.134006 0.134619 0.134723 0.134312 0.134409 0.134723 0.1348 0.134409 0.134481 0.134312 0.134409 0.134006 0.134096 0.134409 0.134481 0.134096 0.134163 0.135442 0.135508 0.135121 0.135183 0.135508 0.135557 0.135183 0.135229 0.135121 0.135183 0.1348 0.134858 0.135183 0.135229 0.134858 0.134901 0.135557 0.135594 0.135229 0.135263 0.135594 0.13562 0.135263 0.135288 0.135229 0.135263 0.134901 0.134933 0.135263 0.135288 0.134933 0.134956 0.1348 0.134858 0.134481 0.134535 0.134858 0.134901 0.134535 0.134575 0.134481 0.134535 0.134163 0.134212 0.134535 0.134575 0.134212 0.134249 0.134901 0.134933 0.134575 0.134604 0.134933 0.134956 0.134604 0.134625 0.134575 0.134604 0.134249 0.134275 0.134604 0.134625 0.134275 0.134295 0.12879 0.130028 0.128644 0.129861 0.130028 0.131013 0.129861 0.130825 0.128644 0.129861 0.128488 0.129686 0.129861 0.130825 0.129686 0.130631 0.131013 0.13179 0.130825 0.131581 0.13179 0.132398 0.131581 0.13217 0.130825 0.131581 0.130631 0.131368 0.131581 0.13217 0.131368 0.131939 0.128488 0.129686 0.128322 0.129504 0.129686 0.130631 0.129504 0.130431 0.128322 0.129504 0.128147 0.129314 0.129504 0.130431 0.129314 0.130225 0.130631 0.131368 0.130431 0.131151 0.131368 0.131939 0.131151 0.131704 0.130431 0.131151 0.130225 0.130929 0.131151 0.131704 0.130929 0.131467 0.132398 0.132871 0.13217 0.132625 0.132871 0.133235 0.132625 0.132973 0.13217 0.132625 0.131939 0.132377 0.132625 0.132973 0.132377 0.13271 0.133235 0.133514 0.132973 0.133238 0.133514 0.133726 0.133238 0.133438 0.132973 0.133238 0.13271 0.132962 0.133238 0.133438 0.132962 0.133151 0.131939 0.132377 0.131704 0.132127 0.132377 0.13271 0.132127 0.132446 0.131704 0.132127 0.131467 0.131874 0.132127 0.132446 0.131874 0.13218 0.13271 0.132962 0.132446 0.132685 0.132962 0.133151 0.132685 0.132863 0.132446 0.132685 0.13218 0.132407 0.132685 0.132863 0.132407 0.132575 0.128147 0.129314 0.127961 0.129116 0.129314 0.130225 0.129116 0.130013 0.127961 0.129116 0.127766 0.12891 0.129116 0.130013 0.12891 0.129795 0.130225 0.130929 0.130013 0.130702 0.130929 0.131467 0.130702 0.131226 0.130013 0.130702 0.129795 0.13047 0.130702 0.131226 0.13047 0.130981 0.127766 0.12891 0.127562 0.128697 0.12891 0.129795 0.128697 0.12957 0.127562 0.128697 0.127348 0.128476 0.128697 0.12957 0.128476 0.129339 0.129795 0.13047 0.12957 0.130234 0.13047 0.130981 0.130234 0.130732 0.12957 0.130234 0.129339 0.129992 0.130234 0.130732 0.129992 0.130478 0.131467 0.131874 0.131226 0.131619 0.131874 0.13218 0.131619 0.131913 0.131226 0.131619 0.130981 0.131362 0.131619 0.131913 0.131362 0.131643 0.13218 0.132407 0.131913 0.132128 0.132407 0.132575 0.132128 0.132285 0.131913 0.132128 0.131643 0.131848 0.132128 0.132285 0.131848 0.131995 0.130981 0.131362 0.130732 0.131101 0.131362 0.131643 0.131101 0.131371 0.130732 0.131101 0.130478 0.130836 0.131101 0.131371 0.130836 0.131096 0.131643 0.131848 0.131371 0.131565 0.131848 0.131995 0.131565 0.131704 0.131371 0.131565 0.131096 0.131281 0.131565 0.131704 0.131281 0.131411 0.133726 0.133886 0.133438 0.133588 0.133886 0.134006 0.133588 0.133701 0.133438 0.133588 0.133151 0.133291 0.133588 0.133701 0.133291 0.133395 0.134006 0.134096 0.133701 0.133784 0.134096 0.134163 0.133784 0.133845 0.133701 0.133784 0.133395 0.133472 0.133784 0.133845 0.133472 0.133528 0.133151 0.133291 0.132863 0.132994 0.133291 0.133395 0.132994 0.13309 0.132863 0.132994 0.132575 0.132697 0.132994 0.13309 0.132697 0.132785 0.133395 0.133472 0.13309 0.13316 0.133472 0.133528 0.13316 0.133211 0.13309 0.13316 0.132785 0.132849 0.13316 0.133211 0.132849 0.132894 0.134163 0.134212 0.133845 0.13389 0.134212 0.134249 0.13389 0.133923 0.133845 0.13389 0.133528 0.133568 0.13389 0.133923 0.133568 0.133598 0.134249 0.134275 0.133923 0.133947 0.134275 0.134295 0.133947 0.133964 0.133923 0.133947 0.133598 0.133619 0.133947 0.133964 0.133619 0.133634 0.133528 0.133568 0.133211 0.133247 0.133568 0.133598 0.133247 0.133273 0.133211 0.133247 0.132894 0.132926 0.133247 0.133273 0.132926 0.132949 0.133598 0.133619 0.133273 0.133292 0.133619 0.133634 0.133292 0.133305 0.133273 0.133292 0.132949 0.132964 0.133292 0.133305 0.132964 0.132975 0.132575 0.132697 0.132285 0.132399 0.132697 0.132785 0.132399 0.13248 0.132285 0.132399 0.131995 0.1321 0.132399 0.13248 0.1321 0.132174 0.132785 0.132849 0.13248 0.132537 0.132849 0.132894 0.132537 0.132577 0.13248 0.132537 0.132174 0.132225 0.132537 0.132577 0.132225 0.13226 0.131995 0.1321 0.131704 0.131801 0.1321 0.132174 0.131801 0.131867 0.131704 0.131801 0.131411 0.1315 0.131801 0.131867 0.1315 0.13156 0.132174 0.132225 0.131867 0.131913 0.132225 0.13226 0.131913 0.131943 0.131867 0.131913 0.13156 0.1316 0.131913 0.131943 0.1316 0.131625 0.132894 0.132926 0.132577 0.132605 0.132926 0.132949 0.132605 0.132624 0.132577 0.132605 0.13226 0.132284 0.132605 0.132624 0.132284 0.1323 0.132949 0.132964 0.132624 0.132637 0.132964 0.132975 0.132637 0.132646 0.132624 0.132637 0.1323 0.13231 0.132637 0.132646 0.13231 0.132317 0.13226 0.132284 0.131943 0.131963 0.132284 0.1323 0.131963 0.131975 0.131943 0.131963 0.131625 0.131641 0.131963 0.131975 0.131641 0.131651 0.1323 0.13231 0.131975 0.131983 0.13231 0.132317 0.131983 0.131988 0.131975 0.131983 0.131651 0.131656 0.131983 0.131988 0.131656 0.131659 0 0.0162147 0 0.0160678 0.0162147 0.0315648 0.0160678 0.0312687 0 0.0160678 0 0.0159425 0.0160678 0.0312687 0.0159425 0.0310146 0.0315648 0.0460818 0.0312687 0.0456423 0.0460818 0.0595536 0.0456423 0.0590078 0.0312687 0.0456423 0.0310146 0.0452587 0.0456423 0.0590078 0.0452587 0.0585205 0 0.0159425 0 0.0158347 0.0159425 0.0310146 0.0158347 0.0307947 0 0.0158347 0 0.015741 0.0158347 0.0307947 0.015741 0.0306027 0.0310146 0.0452587 0.0307947 0.0449218 0.0452587 0.0585205 0.0449218 0.058084 0.0307947 0.0449218 0.0306027 0.044624 0.0449218 0.058084 0.044624 0.0576915 0.0595536 0.0716836 0.0590078 0.071095 0.0716836 0.082287 0.071095 0.0817184 0.0590078 0.071095 0.0585205 0.0705559 0.071095 0.0817184 0.0705559 0.0811834 0.082287 0.0913616 0.0817184 0.0908518 0.0913616 0.0990279 0.0908518 0.0985892 0.0817184 0.0908518 0.0811834 0.0903596 0.0908518 0.0985892 0.0903596 0.0981556 0.0585205 0.0705559 0.058084 0.0700618 0.0705559 0.0811834 0.0700618 0.0806811 0.058084 0.0700618 0.0576915 0.0696084 0.0700618 0.0806811 0.0696084 0.0802097 0.0811834 0.0903596 0.0806811 0.0898861 0.0903596 0.0981556 0.0898861 0.0977293 0.0806811 0.0898861 0.0802097 0.0894319 0.0898861 0.0977293 0.0894319 0.0973118 0 0.015741 0 0.0156587 0.015741 0.0306027 0.0156587 0.0304335 0 0.0156587 0 0.0155858 0.0156587 0.0304335 0.0155858 0.0302832 0.0306027 0.044624 0.0304335 0.0443592 0.044624 0.0576915 0.0443592 0.0573373 0.0304335 0.0443592 0.0302832 0.044122 0.0443592 0.0573373 0.044122 