# vtk DataFile Version 3.0
#This file was generated by the deal.II library on 2022/1/6 at 22:47:21
ASCII
DATASET UNSTRUCTURED_GRID

POINTS 16384 double
0 0 0
0.1875 0 0
0 0.046875 0
0.1875 0.046875 0
0.1875 0 0
0.375 0 0
0.1875 0.046875 0
0.375 0.046875 0
0 0.046875 0
0.1875 0.046875 0
0 0.09375 0
0.1875 0.09375 0
0.1875 0.046875 0
0.375 0.046875 0
0.1875 0.09375 0
0.375 0.09375 0
0.375 0 0
0.5625 0 0
0.375 0.046875 0
0.5625 0.046875 0
0.5625 0 0
0.75 0 0
0.5625 0.046875 0
0.75 0.046875 0
0.375 0.046875 0
0.5625 0.046875 0
0.375 0.09375 0
0.5625 0.09375 0
0.5625 0.046875 0
0.75 0.046875 0
0.5625 0.09375 0
0.75 0.09375 0
0 0.09375 0
0.1875 0.09375 0
0 0.140625 0
0.1875 0.140625 0
0.1875 0.09375 0
0.375 0.09375 0
0.1875 0.140625 0
0.375 0.140625 0
0 0.140625 0
0.1875 0.140625 0
0 0.1875 0
0.1875 0.1875 0
0.1875 0.140625 0
0.375 0.140625 0
0.1875 0.1875 0
0.375 0.1875 0
0.375 0.09375 0
0.5625 0.09375 0
0.375 0.140625 0
0.5625 0.140625 0
0.5625 0.09375 0
0.75 0.09375 0
0.5625 0.140625 0
0.75 0.140625 0
0.375 0.140625 0
0.5625 0.140625 0
0.375 0.1875 0
0.5625 0.1875 0
0.5625 0.140625 0
0.75 0.140625 0
0.5625 0.1875 0
0.75 0.1875 0
0.75 0 0
0.9375 0 0
0.75 0.046875 0
0.9375 0.046875 0
0.9375 0 0
1.125 0 0
0.9375 0.046875 0
1.125 0.046875 0
0.75 0.046875 0
0.9375 0.046875 0
0.75 0.09375 0
0.9375 0.09375 0
0.9375 0.046875 0
1.125 0.046875 0
0.9375 0.09375 0
1.125 0.09375 0
1.125 0 0
1.3125 0 0
1.125 0.046875 0
1.3125 0.046875 0
1.3125 0 0
1.5 0 0
1.3125 0.046875 0
1.5 0.046875 0
1.125 0.046875 0
1.3125 0.046875 0
1.125 0.09375 0
1.3125 0.09375 0
1.3125 0.046875 0
1.5 0.046875 0
1.3125 0.09375 0
1.5 0.09375 0
0.75 0.09375 0
0.9375 0.09375 0
0.75 0.140625 0
0.9375 0.140625 0
0.9375 0.09375 0
1.125 0.09375 0
0.9375 0.140625 0
1.125 0.140625 0
0.75 0.140625 0
0.9375 0.140625 0
0.75 0.1875 0
0.9375 0.1875 0
0.9375 0.140625 0
1.125 0.140625 0
0.9375 0.1875 0
1.125 0.1875 0
1.125 0.09375 0
1.3125 0.09375 0
1.125 0.140625 0
1.3125 0.140625 0
1.3125 0.09375 0
1.5 0.09375 0
1.3125 0.140625 0
1.5 0.140625 0
1.125 0.140625 0
1.3125 0.140625 0
1.125 0.1875 0
1.3125 0.1875 0
1.3125 0.140625 0
1.5 0.140625 0
1.3125 0.1875 0
1.5 0.1875 0
0 0.1875 0
0.1875 0.1875 0
0 0.234375 0
0.1875 0.234375 0
0.1875 0.1875 0
0.375 0.1875 0
0.1875 0.234375 0
0.375 0.234375 0
0 0.234375 0
0.1875 0.234375 0
0 0.28125 0
0.1875 0.28125 0
0.1875 0.234375 0
0.375 0.234375 0
0.1875 0.28125 0
0.375 0.28125 0
0.375 0.1875 0
0.5625 0.1875 0
0.375 0.234375 0
0.5625 0.234375 0
0.5625 0.1875 0
0.75 0.1875 0
0.5625 0.234375 0
0.75 0.234375 0
0.375 0.234375 0
0.5625 0.234375 0
0.375 0.28125 0
0.5625 0.28125 0
0.5625 0.234375 0
0.75 0.234375 0
0.5625 0.28125 0
0.75 0.28125 0
0 0.28125 0
0.1875 0.28125 0
0 0.328125 0
0.1875 0.328125 0
0.1875 0.28125 0
0.375 0.28125 0
0.1875 0.328125 0
0.375 0.328125 0
0 0.328125 0
0.1875 0.328125 0
0 0.375 0
0.1875 0.375 0
0.1875 0.328125 0
0.375 0.328125 0
0.1875 0.375 0
0.375 0.375 0
0.375 0.28125 0
0.5625 0.28125 0
0.375 0.328125 0
0.5625 0.328125 0
0.5625 0.28125 0
0.75 0.28125 0
0.5625 0.328125 0
0.75 0.328125 0
0.375 0.328125 0
0.5625 0.328125 0
0.375 0.375 0
0.5625 0.375 0
0.5625 0.328125 0
0.75 0.328125 0
0.5625 0.375 0
0.75 0.375 0
0.75 0.1875 0
0.9375 0.1875 0
0.75 0.234375 0
0.9375 0.234375 0
0.9375 0.1875 0
1.125 0.1875 0
0.9375 0.234375 0
1.125 0.234375 0
0.75 0.234375 0
0.9375 0.234375 0
0.75 0.28125 0
0.9375 0.28125 0
0.9375 0.234375 0
1.125 0.234375 0
0.9375 0.28125 0
1.125 0.28125 0
1.125 0.1875 0
1.3125 0.1875 0
1.125 0.234375 0
1.3125 0.234375 0
1.3125 0.1875 0
1.5 0.1875 0
1.3125 0.234375 0
1.5 0.234375 0
1.125 0.234375 0
1.3125 0.234375 0
1.125 0.28125 0
1.3125 0.28125 0
1.3125 0.234375 0
1.5 0.234375 0
1.3125 0.28125 0
1.5 0.28125 0
0.75 0.28125 0
0.9375 0.28125 0
0.75 0.328125 0
0.9375 0.328125 0
0.9375 0.28125 0
1.125 0.28125 0
0.9375 0.328125 0
1.125 0.328125 0
0.75 0.328125 0
0.9375 0.328125 0
0.75 0.375 0
0.9375 0.375 0
0.9375 0.328125 0
1.125 0.328125 0
0.9375 0.375 0
1.125 0.375 0
1.125 0.28125 0
1.3125 0.28125 0
1.125 0.328125 0
1.3125 0.328125 0
1.3125 0.28125 0
1.5 0.28125 0
1.3125 0.328125 0
1.5 0.328125 0
1.125 0.328125 0
1.3125 0.328125 0
1.125 0.375 0
1.3125 0.375 0
1.3125 0.328125 0
1.5 0.328125 0
1.3125 0.375 0
1.5 0.375 0
1.5 0 0
1.6875 0 0
1.5 0.046875 0
1.6875 0.046875 0
1.6875 0 0
1.875 0 0
1.6875 0.046875 0
1.875 0.046875 0
1.5 0.046875 0
1.6875 0.046875 0
1.5 0.09375 0
1.6875 0.09375 0
1.6875 0.046875 0
1.875 0.046875 0
1.6875 0.09375 0
1.875 0.09375 0
1.875 0 0
2.0625 0 0
1.875 0.046875 0
2.0625 0.046875 0
2.0625 0 0
2.25 0 0
2.0625 0.046875 0
2.25 0.046875 0
1.875 0.046875 0
2.0625 0.046875 0
1.875 0.09375 0
2.0625 0.09375 0
2.0625 0.046875 0
2.25 0.046875 0
2.0625 0.09375 0
2.25 0.09375 0
1.5 0.09375 0
1.6875 0.09375 0
1.5 0.140625 0
1.6875 0.140625 0
1.6875 0.09375 0
1.875 0.09375 0
1.6875 0.140625 0
1.875 0.140625 0
1.5 0.140625 0
1.6875 0.140625 0
1.5 0.1875 0
1.6875 0.1875 0
1.6875 0.140625 0
1.875 0.140625 0
1.6875 0.1875 0
1.875 0.1875 0
1.875 0.09375 0
2.0625 0.09375 0
1.875 0.140625 0
2.0625 0.140625 0
2.0625 0.09375 0
2.25 0.09375 0
2.0625 0.140625 0
2.25 0.140625 0
1.875 0.140625 0
2.0625 0.140625 0
1.875 0.1875 0
2.0625 0.1875 0
2.0625 0.140625 0
2.25 0.140625 0
2.0625 0.1875 0
2.25 0.1875 0
2.25 0 0
2.4375 0 0
2.25 0.046875 0
2.4375 0.046875 0
2.4375 0 0
2.625 0 0
2.4375 0.046875 0
2.625 0.046875 0
2.25 0.046875 0
2.4375 0.046875 0
2.25 0.09375 0
2.4375 0.09375 0
2.4375 0.046875 0
2.625 0.046875 0
2.4375 0.09375 0
2.625 0.09375 0
2.625 0 0
2.8125 0 0
2.625 0.046875 0
2.8125 0.046875 0
2.8125 0 0
3 0 0
2.8125 0.046875 0
3 0.046875 0
2.625 0.046875 0
2.8125 0.046875 0
2.625 0.09375 0
2.8125 0.09375 0
2.8125 0.046875 0
3 0.046875 0
2.8125 0.09375 0
3 0.09375 0
2.25 0.09375 0
2.4375 0.09375 0
2.25 0.140625 0
2.4375 0.140625 0
2.4375 0.09375 0
2.625 0.09375 0
2.4375 0.140625 0
2.625 0.140625 0
2.25 0.140625 0
2.4375 0.140625 0
2.25 0.1875 0
2.4375 0.1875 0
2.4375 0.140625 0
2.625 0.140625 0
2.4375 0.1875 0
2.625 0.1875 0
2.625 0.09375 0
2.8125 0.09375 0
2.625 0.140625 0
2.8125 0.140625 0
2.8125 0.09375 0
3 0.09375 0
2.8125 0.140625 0
3 0.140625 0
2.625 0.140625 0
2.8125 0.140625 0
2.625 0.1875 0
2.8125 0.1875 0
2.8125 0.140625 0
3 0.140625 0
2.8125 0.1875 0
3 0.1875 0
1.5 0.1875 0
1.6875 0.1875 0
1.5 0.234375 0
1.6875 0.234375 0
1.6875 0.1875 0
1.875 0.1875 0
1.6875 0.234375 0
1.875 0.234375 0
1.5 0.234375 0
1.6875 0.234375 0
1.5 0.28125 0
1.6875 0.28125 0
1.6875 0.234375 0
1.875 0.234375 0
1.6875 0.28125 0
1.875 0.28125 0
1.875 0.1875 0
2.0625 0.1875 0
1.875 0.234375 0
2.0625 0.234375 0
2.0625 0.1875 0
2.25 0.1875 0
2.0625 0.234375 0
2.25 0.234375 0
1.875 0.234375 0
2.0625 0.234375 0
1.875 0.28125 0
2.0625 0.28125 0
2.0625 0.234375 0
2.25 0.234375 0
2.0625 0.28125 0
2.25 0.28125 0
1.5 0.28125 0
1.6875 0.28125 0
1.5 0.328125 0
1.6875 0.328125 0
1.6875 0.28125 0
1.875 0.28125 0
1.6875 0.328125 0
1.875 0.328125 0
1.5 0.328125 0
1.6875 0.328125 0
1.5 0.375 0
1.6875 0.375 0
1.6875 0.328125 0
1.875 0.328125 0
1.6875 0.375 0
1.875 0.375 0
1.875 0.28125 0
2.0625 0.28125 0
1.875 0.328125 0
2.0625 0.328125 0
2.0625 0.28125 0
2.25 0.28125 0
2.0625 0.328125 0
2.25 0.328125 0
1.875 0.328125 0
2.0625 0.328125 0
1.875 0.375 0
2.0625 0.375 0
2.0625 0.328125 0
2.25 0.328125 0
2.0625 0.375 0
2.25 0.375 0
2.25 0.1875 0
2.4375 0.1875 0
2.25 0.234375 0
2.4375 0.234375 0
2.4375 0.1875 0
2.625 0.1875 0
2.4375 0.234375 0
2.625 0.234375 0
2.25 0.234375 0
2.4375 0.234375 0
2.25 0.28125 0
2.4375 0.28125 0
2.4375 0.234375 0
2.625 0.234375 0
2.4375 0.28125 0
2.625 0.28125 0
2.625 0.1875 0
2.8125 0.1875 0
2.625 0.234375 0
2.8125 0.234375 0
2.8125 0.1875 0
3 0.1875 0
2.8125 0.234375 0
3 0.234375 0
2.625 0.234375 0
2.8125 0.234375 0
2.625 0.28125 0
2.8125 0.28125 0
2.8125 0.234375 0
3 0.234375 0
2.8125 0.28125 0
3 0.28125 0
2.25 0.28125 0
2.4375 0.28125 0
2.25 0.328125 0
2.4375 0.328125 0
2.4375 0.28125 0
2.625 0.28125 0
2.4375 0.328125 0
2.625 0.328125 0
2.25 0.328125 0
2.4375 0.328125 0
2.25 0.375 0
2.4375 0.375 0
2.4375 0.328125 0
2.625 0.328125 0
2.4375 0.375 0
2.625 0.375 0
2.625 0.28125 0
2.8125 0.28125 0
2.625 0.328125 0
2.8125 0.328125 0
2.8125 0.28125 0
3 0.28125 0
2.8125 0.328125 0
3 0.328125 0
2.625 0.328125 0
2.8125 0.328125 0
2.625 0.375 0
2.8125 0.375 0
2.8125 0.328125 0
3 0.328125 0
2.8125 0.375 0
3 0.375 0
0 0.375 0
0.1875 0.375 0
0 0.421875 0
0.1875 0.421875 0
0.1875 0.375 0
0.375 0.375 0
0.1875 0.421875 0
0.375 0.421875 0
0 0.421875 0
0.1875 0.421875 0
0 0.46875 0
0.1875 0.46875 0
0.1875 0.421875 0
0.375 0.421875 0
0.1875 0.46875 0
0.375 0.46875 0
0.375 0.375 0
0.5625 0.375 0
0.375 0.421875 0
0.5625 0.421875 0
0.5625 0.375 0
0.75 0.375 0
0.5625 0.421875 0
0.75 0.421875 0
0.375 0.421875 0
0.5625 0.421875 0
0.375 0.46875 0
0.5625 0.46875 0
0.5625 0.421875 0
0.75 0.421875 0
0.5625 0.46875 0
0.75 0.46875 0
0 0.46875 0
0.1875 0.46875 0
0 0.515625 0
0.1875 0.515625 0
0.1875 0.46875 0
0.375 0.46875 0
0.1875 0.515625 0
0.375 0.515625 0
0 0.515625 0
0.1875 0.515625 0
0 0.5625 0
0.1875 0.5625 0
0.1875 0.515625 0
0.375 0.515625 0
0.1875 0.5625 0
0.375 0.5625 0
0.375 0.46875 0
0.5625 0.46875 0
0.375 0.515625 0
0.5625 0.515625 0
0.5625 0.46875 0
0.75 0.46875 0
0.5625 0.515625 0
0.75 0.515625 0
0.375 0.515625 0
0.5625 0.515625 0
0.375 0.5625 0
0.5625 0.5625 0
0.5625 0.515625 0
0.75 0.515625 0
0.5625 0.5625 0
0.75 0.5625 0
0.75 0.375 0
0.9375 0.375 0
0.75 0.421875 0
0.9375 0.421875 0
0.9375 0.375 0
1.125 0.375 0
0.9375 0.421875 0
1.125 0.421875 0
0.75 0.421875 0
0.9375 0.421875 0
0.75 0.46875 0
0.9375 0.46875 0
0.9375 0.421875 0
1.125 0.421875 0
0.9375 0.46875 0
1.125 0.46875 0
1.125 0.375 0
1.3125 0.375 0
1.125 0.421875 0
1.3125 0.421875 0
1.3125 0.375 0
1.5 0.375 0
1.3125 0.421875 0
1.5 0.421875 0
1.125 0.421875 0
1.3125 0.421875 0
1.125 0.46875 0
1.3125 0.46875 0
1.3125 0.421875 0
1.5 0.421875 0
1.3125 0.46875 0
1.5 0.46875 0
0.75 0.46875 0
0.9375 0.46875 0
0.75 0.515625 0
0.9375 0.515625 0
0.9375 0.46875 0
1.125 0.46875 0
0.9375 0.515625 0
1.125 0.515625 0
0.75 0.515625 0
0.9375 0.515625 0
[...]
POINT_DATA 16384
SCALARS x_displacement double 1
LOOKUP_TABLE default
0 0.0327019 0 0.0293522 0.0327019 0.0574867 0.0293522 0.0560207 0 0.0293522 0 0.0270479 0.0293522 0.0560207 0.0270479 0.0534313 0.0574867 0.0725109 0.0560207 0.0714092 0.0725109 0.0775928 0.0714092 0.0769669 0.0560207 0.0714092 0.0534313 0.0695959 0.0714092 0.0769669 0.0695959 0.0758811 0 0.0270479 0 0.0251413 0.0270479 0.0534313 0.0251413 0.0500183 0 0.0251413 0 0.0235323 0.0251413 0.0500183 0.0235323 0.046523 0.0534313 0.0695959 0.0500183 0.0669735 0.0695959 0.0758811 0.0669735 0.0743745 0.0500183 0.0669735 0.046523 0.0633953 0.0669735 0.0743745 0.0633953 0.07258 0.0775928 0.0820985 0.0769669 0.081909 0.0820985 0.0870181 0.081909 0.0871388 0.0769669 0.081909 0.0758811 0.0814685 0.081909 0.0871388 0.0814685 0.0870681 0.0870181 0.0919167 0.0871388 0.0921477 0.0919167 0.0964575 0.0921477 0.0967201 0.0871388 0.0921477 0.0870681 0.0922456 0.0921477 0.0967201 0.0922456 0.0968836 0.0758811 0.0814685 0.0743745 0.0808181 0.0814685 0.0870681 0.0808181 0.0868347 0.0743745 0.0808181 0.07258 0.0800056 0.0808181 0.0868347 0.0800056 0.0864609 0.0870681 0.0922456 0.0868347 0.0922203 0.0922456 0.0968836 0.0922203 0.0969549 0.0868347 0.0922203 0.0864609 0.092086 0.0922203 0.0969549 0.092086 0.0969411 0 0.0235323 0 0.022166 0.0235323 0.046523 0.022166 0.04324 0 0.022166 0 0.020961 0.022166 0.04324 0.020961 0.0406399 0.046523 0.0633953 0.04324 0.0597433 0.0633953 0.07258 0.0597433 0.0707345 0.04324 0.0597433 0.0406399 0.0568239 0.0597433 0.0707345 0.0568239 0.068875 0 0.020961 0 0.0199444 0.020961 0.0406399 0.0199444 0.0385796 0 0.0199444 0 0.019107 0.0199444 0.0385796 0.019107 0.0369394 0.0406399 0.0568239 0.0385796 0.0544946 0.0568239 0.068875 0.0544946 0.0671297 0.0385796 0.0544946 0.0369394 0.0525947 0.0544946 0.0671297 0.0525947 0.0655485 0.07258 0.0800056 0.0707345 0.0790546 0.0800056 0.0864609 0.0790546 0.0859749 0.0707345 0.0790546 0.068875 0.078023 0.0790546 0.0859749 0.078023 0.0853986 0.0864609 0.092086 0.0859749 0.0918562 0.092086 0.0969411 0.0918562 0.0968504 0.0859749 0.0918562 0.0853986 0.0915454 0.0918562 0.0968504 0.0915454 0.0966909 0.068875 0.078023 0.0671297 0.076945 0.078023 0.0853986 0.076945 0.0847567 0.0671297 0.076945 0.0655485 0.0758627 0.076945 0.0847567 0.0758627 0.0840689 0.0853986 0.0915454 0.0847567 0.0911669 0.0915454 0.0966909 0.0911669 0.0964714 0.0847567 0.0911669 0.0840689 0.0907346 0.0911669 0.0964714 0.0907346 0.0962001 0.0964575 0.100518 0.0967201 0.100768 0.100518 0.104066 0.100768 0.104276 0.0967201 0.100768 0.0968836 0.100943 0.100768 0.104276 0.100943 0.104431 0.104066 0.107111 0.104276 0.107268 0.107111 0.109689 0.107268 0.109784 0.104276 0.107268 0.104431 0.107383 0.107268 0.109784 0.107383 0.10985 0.0968836 0.100943 0.0969549 0.101048 0.100943 0.104431 0.101048 0.104532 0.0969549 0.101048 0.0969411 0.101086 0.101048 0.104532 0.101086 0.104582 0.104431 0.107383 0.104532 0.107458 0.107383 0.10985 0.107458 0.109887 0.104532 0.107458 0.104582 0.107495 0.107458 0.109887 0.107495 0.109895 0.109689 0.111842 0.109784 0.111875 0.111842 0.113621 0.111875 0.113594 0.109784 0.111875 0.10985 0.111888 0.111875 0.113594 0.111888 0.113554 0.113621 0.115076 0.113594 0.114993 0.115076 0.116255 0.114993 0.116122 0.113594 0.114993 0.113554 0.114903 0.114993 0.116122 0.114903 0.115986 0.10985 0.111888 0.109887 0.11188 0.111888 0.113554 0.11188 0.1135 0.109887 0.11188 0.109895 0.111852 0.11188 0.1135 0.111852 0.113432 0.113554 0.114903 0.1135 0.114804 0.114903 0.115986 0.114804 0.115846 0.1135 0.114804 0.113432 0.114697 0.114804 0.115846 0.114697 0.1157 0.0969411 0.101086 0.0968504 0.101063 0.101086 0.104582 0.101063 0.104584 0.0968504 0.101063 0.0966909 0.100985 0.101063 0.104584 0.100985 0.104541 0.104582 0.107495 0.104584 0.107494 0.107495 0.109895 0.107494 0.109875 0.104584 0.107494 0.104541 0.107459 0.107494 0.109875 0.107459 0.109829 0.0966909 0.100985 0.0964714 0.100855 0.100985 0.104541 0.100855 0.104457 0.0964714 0.100855 0.0962001 0.10068 0.100855 0.104457 0.10068 0.104334 0.104541 0.107459 0.104457 0.10739 0.107459 0.109829 0.10739 0.109757 0.104457 0.10739 0.104334 0.10729 0.10739 0.109757 0.10729 0.10966 0.109895 0.111852 0.109875 0.111804 0.111852 0.113432 0.111804 0.11335 0.109875 0.111804 0.109829 0.111735 0.111804 0.11335 0.111735 0.113254 0.113432 0.114697 0.11335 0.11458 0.114697 0.1157 0.11458 0.11555 0.11335 0.11458 0.113254 0.114453 0.11458 0.11555 0.114453 0.115393 0.109829 0.111735 0.109757 0.111648 0.111735 0.113254 0.111648 0.113144 0.109757 0.111648 0.10966 0.111541 0.111648 0.113144 0.111541 0.113019 0.113254 0.114453 0.113144 0.114317 0.114453 0.115393 0.114317 0.115229 0.113144 0.114317 0.113019 0.11417 0.114317 0.115229 0.11417 0.115058 0 0.019107 0 0.0184256 0.019107 0.0369394 0.0184256 0.0356248 0 0.0184256 0 0.0178735 0.0184256 0.0356248 0.0178735 0.0345639 0.0369394 0.0525947 0.0356248 0.0510253 0.0525947 0.0655485 0.0510253 0.0641368 0.0356248 0.0510253 0.0345639 0.0497175 0.0510253 0.0641368 0.0497175 0.0628847 0 0.0178735 0 0.0174259 0.0178735 0.0345639 0.0174259 0.0337018 0 0.0174259 0 0.0170618 0.0174259 0.0337018 0.0170618 0.0329963 0.0345639 0.0497175 0.0337018 0.0486203 0.0497175 0.0628847 0.0486203 0.0617777 0.0337018 0.0486203 0.0329963 0.0476942 0.0486203 0.0617777 0.0476942 0.0607998 0.0655485 0.0758627 0.0641368 0.0748091 0.0758627 0.0840689 0.0748091 0.0833542 0.0641368 0.0748091 0.0628847 0.0738049 0.0748091 0.0833542 0.0738049 0.0826298 0.0840689 0.0907346 0.0833542 0.0902607 0.0907346 0.0962001 0.0902607 0.0958853 0.0833542 0.0902607 0.0826298 0.0897567 0.0902607 0.0958853 0.0897567 0.0955348 0.0628847 0.0738049 0.0617777 0.0728613 0.0738049 0.0826298 0.0728613 0.0819099 0.0617777 0.0728613 0.0607998 0.071983 0.0728613 0.0819099 0.071983 0.0812052 0.0826298 0.0897567 0.0819099 0.0892328 0.0897567 0.0955348 0.0892328 0.095156 0.0819099 0.0892328 0.0812052 0.0886979 0.0892328 0.095156 0.0886979 0.0947555 0 0.0170618 0 0.0167639 0.0170618 0.0329963 0.0167639 0.0324147 0 0.0167639 0 0.0165184 0.0167639 0.0324147 0.0165184 0.0319315 0.0329963 0.0476942 0.0324147 0.0469082 0.0476942 0.0607998 0.0469082 0.0599357 0.0324147 0.0469082 0.0319315 0.0462373 0.0469082 0.0599357 0.0462373 0.0591714 0 0.0165184 0 0.0163147 0.0165184 0.0319315 0.0163147 0.0315269 0 0.0163147 0 0.016144 0.0163147 0.0315269 0.016144 0.0311853 0.0319315 0.0462373 0.0315269 0.0456616 0.0462373 0.0591714 0.0456616 0.058494 0.0315269 0.0456616 0.0311853 0.0451645 0.0456616 0.058494 0.0451645 0.0578923 0.0607998 0.071983 0.0599357 0.0711706 0.071983 0.0812052 0.0711706 0.0805233 0.0599357 0.0711706 0.0591714 0.0704224 0.0711706 0.0805233 0.0704224 0.0798692 0.0812052 0.0886979 0.0805233 0.0881598 0.0886979 0.0947555 0.0881598 0.0943393 0.0805233 0.0881598 0.0798692 0.0876247 0.0881598 0.0943393 0.0876247 0.0939129 0.0591714 0.0704224 0.058494 0.0697351 0.0704224 0.0798692 0.0697351 0.079246 0.058494 0.0697351 0.0578923 0.0691047 0.0697351 0.079246 0.0691047 0.0786551 0.0798692 0.0876247 0.079246 0.0870975 0.0876247 0.0939129 0.0870975 0.0934808 0.079246 0.0870975 0.0786551 0.0865822 0.0870975 0.0934808 0.0865822 0.0930472 0.0962001 0.10068 0.0958853 0.100465 0.10068 0.104334 0.100465 0.104177 0.0958853 0.100465 0.0955348 0.100216 0.100465 0.104177 0.100216 0.103989 0.104334 0.10729 0.104177 0.107162 0.10729 0.10966 0.107162 0.10954 0.104177 0.107162 0.103989 0.107007 0.107162 0.10954 0.107007 0.109398 0.0955348 0.100216 0.095156 0.0999364 0.100216 0.103989 0.0999364 0.103773 0.095156 0.0999364 0.0947555 0.0996321 0.0999364 0.103773 0.0996321 0.103533 0.103989 0.107007 0.103773 0.106828 0.107007 0.109398 0.106828 0.109236 0.103773 0.106828 0.103533 0.106627 0.106828 0.109236 0.106627 0.109055 0.10966 0.111541 0.10954 0.111416 0.111541 0.113019 0.111416 0.112881 0.10954 0.111416 0.109398 0.111274 0.111416 0.112881 0.111274 0.112729 0.113019 0.11417 0.112881 0.114014 0.11417 0.115058 0.114014 0.114881 0.112881 0.114014 0.112729 0.113847 0.114014 0.114881 0.113847 0.114696 0.109398 0.111274 0.109236 0.111115 0.111274 0.112729 0.111115 0.112564 0.109236 0.111115 0.109055 0.110941 0.111115 0.112564 0.110941 0.112387 0.112729 0.113847 0.112564 0.11367 0.113847 0.114696 0.11367 0.114503 0.112564 0.11367 0.112387 0.113483 0.11367 0.114503 0.113483 0.114303 0.0947555 0.0996321 0.0943393 0.0993076 0.0996321 0.103533 0.0993076 0.103272 0.0943393 0.0993076 0.0939129 0.0989668 0.0993076 0.103272 0.0989668 0.102993 0.103533 0.106627 0.103272 0.106406 0.106627 0.109055 0.106406 0.108857 0.103272 0.106406 0.102993 0.106167 0.106406 0.108857 0.106167 0.108642 0.0939129 0.0989668 0.0934808 0.0986135 0.0989668 0.102993 0.0986135 0.102698 0.0934808 0.0986135 0.0930472 0.0982513 0.0986135 0.102698 0.0982513 0.102392 0.102993 0.106167 0.102698 0.105914 0.106167 0.108642 0.105914 0.108414 0.102698 0.105914 0.102392 0.105646 0.105914 0.108414 0.105646 0.108171 0.109055 0.110941 0.108857 0.110751 0.110941 0.112387 0.110751 0.112197 0.108857 0.110751 0.108642 0.110548 0.110751 0.112197 0.110548 0.111995 0.112387 0.113483 0.112197 0.113286 0.113483 0.114303 0.113286 0.114095 0.112197 0.113286 0.111995 0.113079 0.113286 0.114095 0.113079 0.113879 0.108642 0.110548 0.108414 0.110332 0.110548 0.111995 0.110332 0.111783 0.108414 0.110332 0.108171 0.110103 0.110332 0.111783 0.110103 0.111559 0.111995 0.113079 0.111783 0.112864 0.113079 0.113879 0.112864 0.113656 0.111783 0.112864 0.111559 0.112639 0.112864 0.113656 0.112639 0.113426 0.116255 0.117201 0.116122 0.117025 0.117201 0.117954 0.117025 0.117741 0.116122 0.117025 0.115986 0.116848 0.117025 0.117741 0.116848 0.11753 0.117954 0.118548 0.117741 0.118305 0.118548 0.119013 0.118305 0.118747 0.117741 0.118305 0.11753 0.118065 0.118305 0.118747 0.118065 0.118483 0.115986 0.116848 0.115846 0.116671 0.116848 0.11753 0.116671 0.11732 0.115846 0.116671 0.1157 0.116491 0.116671 0.11732 0.116491 0.11711 0.11753 0.118065 0.11732 0.117828 0.118065 0.118483 0.117828 0.118222 0.11732 0.117828 0.11711 0.117591 0.117828 0.118222 0.117591 0.117963 0.119013 0.119375 0.118747 0.119089 0.119375 0.119654 0.119089 0.119353 0.118747 0.119089 0.118483 0.118807 0.119089 0.119353 0.118807 0.119056 0.119654 0.119868 0.119353 0.119556 0.119868 0.12003 0.119556 0.119709 0.119353 0.119556 0.119056 0.119247 0.119556 0.119709 0.119247 0.119392 0.118483 0.118807 0.118222 0.118527 0.118807 0.119056 0.118527 0.118761 0.118222 0.118527 0.117963 0.11825 0.118527 0.118761 0.11825 0.11847 0.119056 0.119247 0.118761 0.118941 0.119247 0.119392 0.118941 0.119077 0.118761 0.118941 0.11847 0.118637 0.118941 0.119077 0.118637 0.118764 0.1157 0.116491 0.11555 0.116308 0.116491 0.11711 0.116308 0.116899 0.11555 0.116308 0.115393 0.116122 0.116308 0.116899 0.116122 0.116686 0.11711 0.117591 0.116899 0.117355 0.117591 0.117963 0.117355 0.117706 0.116899 0.117355 0.116686 0.117119 0.117355 0.117706 0.117119 0.117449 0.115393 0.116122 0.115229 0.115932 0.116122 0.116686 0.115932 0.116471 0.115229 0.115932 0.115058 0.115738 0.115932 0.116471 0.115738 0.116254 0.116686 0.117119 0.116471 0.116882 0.117119 0.117449 0.116882 0.117193 0.116471 0.116882 0.116254 0.116644 0.116882 0.117193 0.116644 0.116937 0.117963 0.11825 0.117706 0.117975 0.11825 0.11847 0.117975 0.11818 0.117706 0.117975 0.117449 0.117701 0.117975 0.11818 0.117701 0.117892 0.11847 0.118637 0.11818 0.118336 0.118637 0.118764 0.118336 0.118454 0.11818 0.118336 0.117892 0.118036 0.118336 0.118454 0.118036 0.118145 0.117449 0.117701 0.117193 0.117428 0.117701 0.117892 0.117428 0.117605 0.117193 0.117428 0.116937 0.117156 0.117428 0.117605 0.117156 0.117319 0.117892 0.118036 0.117605 0.117738 0.118036 0.118145 0.117738 0.117837 0.117605 0.117738 0.117319 0.117441 0.117738 0.117837 0.117441 0.117531 0.12003 0.120152 0.119709 0.119825 0.120152 0.120243 0.119825 0.119912 0.119709 0.119825 0.119392 0.119501 0.119825 0.119912 0.119501 0.119583 0.120243 0.120309 0.119912 0.119976 0.120309 0.120358 0.119976 0.120023 0.119912 0.119976 0.119583 0.119644 0.119976 0.120023 0.119644 0.119689 0.119392 0.119501 0.119077 0.11918 0.119501 0.119583 0.11918 0.119257 0.119077 0.11918 0.118764 0.11886 0.11918 0.119257 0.11886 0.118932 0.119583 0.119644 0.119257 0.119314 0.119644 0.119689 0.119314 0.119357 0.119257 0.119314 0.118932 0.118986 0.119314 0.119357 0.118986 0.119025 0.120358 0.120393 0.120023 0.120057 0.120393 0.120417 0.120057 0.120081 0.120023 0.120057 0.119689 0.119721 0.120057 0.120081 0.119721 0.119745 0.120417 0.120434 0.120081 0.120097 0.120434 0.120446 0.120097 0.120109 0.120081 0.120097 0.119745 0.119761 0.120097 0.120109 0.119761 0.119772 0.119689 0.119721 0.119357 0.119387 0.119721 0.119745 0.119387 0.11941 0.119357 0.119387 0.119025 0.119054 0.119387 0.11941 0.119054 0.119075 0.119745 0.119761 0.11941 0.119425 0.119761 0.119772 0.119425 0.119436 0.11941 0.119425 0.119075 0.11909 0.119425 0.119436 0.11909 0.119101 0.118764 0.11886 0.118454 0.118542 0.11886 0.118932 0.118542 0.118609 0.118454 0.118542 0.118145 0.118226 0.118542 0.118609 0.118226 0.118287 0.118932 0.118986 0.118609 0.118659 0.118986 0.119025 0.118659 0.118695 0.118609 0.118659 0.118287 0.118333 0.118659 0.118695 0.118333 0.118366 0.118145 0.118226 0.117837 0.117911 0.118226 0.118287 0.117911 0.117967 0.117837 0.117911 0.117531 0.117598 0.117911 0.117967 0.117598 0.117647 0.118287 0.118333 0.117967 0.118008 0.118333 0.118366 0.118008 0.118038 0.117967 0.118008 0.117647 0.117684 0.118008 0.118038 0.117684 0.117711 0.119025 0.119054 0.118695 0.118722 0.119054 0.119075 0.118722 0.118742 0.118695 0.118722 0.118366 0.118391 0.118722 0.118742 0.118391 0.118409 0.119075 0.11909 0.118742 0.118756 0.11909 0.119101 0.118756 0.118765 0.118742 0.118756 0.118409 0.118422 0.118756 0.118765 0.118422 0.118431 0.118366 0.118391 0.118038 0.11806 0.118391 0.118409 0.11806 0.118077 0.118038 0.11806 0.117711 0.11773 0.11806 0.118077 0.11773 0.117745 0.118409 0.118422 0.118077 0.118088 0.118422 0.118431 0.118088 0.118096 0.118077 0.118088 0.117745 0.117755 0.118088 0.118096 0.117755 0.117762 0.115058 0.115738 0.114881 0.115539 0.115738 0.116254 0.115539 0.116034 0.114881 0.115539 0.114696 0.115334 0.115539 0.116034 0.115334 0.115811 0.116254 0.116644 0.116034 0.116405 0.116644 0.116937 0.116405 0.11668 0.116034 0.116405 0.115811 0.116163 0.116405 0.11668 0.116163 0.116422 0.114696 0.115334 0.114503 0.115125 0.115334 0.115811 0.115125 0.115583 0.114503 0.115125 0.114303 0.114909 0.115125 0.115583 0.114909 0.115352 0.115811 0.116163 0.115583 0.115919 0.116163 0.116422 0.115919 0.116162 0.115583 0.115919 0.115352 0.115672 0.115919 0.116162 0.115672 0.115901 0.116937 0.117156 0.11668 0.116883 0.117156 0.117319 0.116883 0.117034 0.11668 0.116883 0.116422 0.116611 0.116883 0.117034 0.116611 0.116748 0.117319 0.117441 0.117034 0.117144 0.117441 0.117531 0.117144 0.117225 0.117034 0.117144 0.116748 0.116848 0.117144 0.117225 0.116848 0.11692 0.116422 0.116611 0.116162 0.116337 0.116611 0.116748 0.116337 0.116463 0.116162 0.116337 0.115901 0.116063 0.116337 0.116463 0.116063 0.116177 0.116748 0.116848 0.116463 0.116552 0.116848 0.11692 0.116552 0.116616 0.116463 0.116552 0.116177 0.116256 0.116552 0.116616 0.116256 0.116311 0.114303 0.114909 0.114095 0.114688 0.114909 0.115352 0.114688 0.115117 0.114095 0.114688 0.113879 0.114461 0.114688 0.115117 0.114461 0.114877 0.115352 0.115672 0.115117 0.115422 0.115672 0.115901 0.115422 0.115638 0.115117 0.115422 0.114877 0.115169 0.115422 0.115638 0.115169 0.115372 0.113879 0.114461 0.113656 0.114227 0.114461 0.114877 0.114227 0.114632 0.113656 0.114227 0.113426 0.113988 0.114227 0.114632 0.113988 0.114382 0.114877 0.115169 0.114632 0.114913 0.115169 0.115372 0.114913 0.115104 0.114632 0.114913 0.114382 0.114652 0.114913 0.115104 0.114652 0.114832 0.115901 0.116063 0.115638 0.115787 0.116063 0.116177 0.115787 0.11589 0.115638 0.115787 0.115372 0.11551 0.115787 0.11589 0.11551 0.115602 0.116177 0.116256 0.11589 0.11596 0.116256 0.116311 0.11596 0.116007 0.11589 0.11596 0.115602 0.115663 0.11596 0.116007 0.115663 0.115702 0.115372 0.11551 0.115104 0.115231 0.11551 0.115602 0.115231 0.115313 0.115104 0.115231 0.114832 0.114949 0.115231 0.115313 0.114949 0.115022 0.115602 0.115663 0.115313 0.115365 0.115663 0.115702 0.115365 0.115396 0.115313 0.115365 0.115022 0.115066 0.115365 0.115396 0.115066 0.11509 0.117531 0.117598 0.117225 0.117285 0.117598 0.117647 0.117285 0.117329 0.117225 0.117285 0.11692 0.116973 0.117285 0.117329 0.116973 0.117011 0.117647 0.117684 0.117329 0.117361 0.117684 0.117711 0.117361 0.117384 0.117329 0.117361 0.117011 0.117038 0.117361 0.117384 0.117038 0.117058 0.11692 0.116973 0.116616 0.116661 0.116973 0.117011 0.116661 0.116693 0.116616 0.116661 0.116311 0.11635 0.116661 0.116693 0.11635 0.116376 0.117011 0.117038 0.116693 0.116716 0.117038 0.117058 0.116716 0.116732 0.116693 0.116716 0.116376 0.116394 0.116716 0.116732 0.116394 0.116407 0.117711 0.11773 0.117384 0.117401 0.11773 0.117745 0.117401 0.117414 0.117384 0.117401 0.117058 0.117072 0.117401 0.117414 0.117072 0.117083 0.117745 0.117755 0.117414 0.117422 0.117755 0.117762 0.117422 0.117429 0.117414 0.117422 0.117083 0.11709 0.117422 0.117429 0.11709 0.117095 0.117058 0.117072 0.116732 0.116744 0.117072 0.117083 0.116744 0.116752 0.116732 0.116744 0.116407 0.116416 0.116744 0.116752 0.116416 0.116422 0.117083 0.11709 0.116752 0.116758 0.11709 0.117095 0.116758 0.116762 0.116752 0.116758 0.116422 0.116426 0.116758 0.116762 0.116426 0.116429 0.116311 0.11635 0.116007 0.116038 0.11635 0.116376 0.116038 0.116059 0.116007 0.116038 0.115702 0.115727 0.116038 0.116059 0.115727 0.115742 0.116376 0.116394 0.116059 0.116073 0.116394 0.116407 0.116073 0.116082 0.116059 0.116073 0.115742 0.115751 0.116073 0.116082 0.115751 0.115757 0.115702 0.115727 0.115396 0.115415 0.115727 0.115742 0.115415 0.115425 0.115396 0.115415 0.11509 0.115103 0.115415 0.115425 0.115103 0.115108 0.115742 0.115751 0.115425 0.11543 0.115751 0.115757 0.11543 0.115432 0.115425 0.11543 0.115108 0.115108 0.11543 0.115432 0.115108 0.115107 0.116407 0.116416 0.116082 0.116088 0.116416 0.116422 0.116088 0.116092 0.116082 0.116088 0.115757 0.11576 0.116088 0.116092 0.11576 0.115762 0.116422 0.116426 0.116092 0.116095 0.116426 0.116429 0.116095 0.116097 0.116092 0.116095 0.115762 0.115763 0.116095 0.116097 0.115763 0.115764 0.115757 0.11576 0.115432 0.115433 0.11576 0.115762 0.115433 0.115432 0.115432 0.115433 0.115107 0.115105 0.115433 0.115432 0.115105 0.115103 0.115762 0.115763 0.115432 0.115432 0.115763 0.115764 0.115432 0.115431 0.115432 0.115432 0.115103 0.115101 0.115432 0.115431 0.115101 0.115099 0 0.016144 0 0.0159999 0.016144 0.0311853 0.0159999 0.0308945 0 0.0159999 0 0.0158769 0.0159999 0.0308945 0.0158769 0.0306448 0.0311853 0.0451645 0.0308945 0.0447329 0.0451645 0.0578923 0.0447329 0.0573562 0.0308945 0.0447329 0.0306448 0.0443558 0.0447329 0.0573562 0.0443558 0.0568772 0 0.0158769 0 0.0157711 0.0158769 0.0306448 0.0157711 0.0304285 0 0.0157711 0 0.015679 0.0157711 0.0304285 0.015679 0.0302395 0.0306448 0.0443558 0.0304285 0.0440242 0.0443558 0.0568772 0.0440242 0.0564476 0.0304285 0.0440242 0.0302395 0.0437309 0.0440242 0.0564476 0.0437309 0.0560608 0.0578923 0.0691047 0.0573562 0.0685268 0.0691047 0.0786551 0.0685268 0.0780969 0.0573562 0.0685268 0.0568772 0.0679968 0.0685268 0.0780969 0.0679968 0.077571 0.0786551 0.0865822 0.0780969 0.0860814 0.0865822 0.0930472 0.0860814 0.0926152 0.0780969 0.0860814 0.077571 0.0855972 0.0860814 0.0926152 0.0855972 0.0921877 0.0568772 0.0679968 0.0564476 0.0675105 0.0679968 0.077571 0.0675105 0.0770764 0.0564476 0.0675105 0.0560608 0.0670637 0.0675105 0.0770764 0.0670637 0.0766118 0.077571 0.0855972 0.0770764 0.0851306 0.0855972 0.0921877 0.0851306 0.0917668 0.0770764 0.0851306 0.0766118 0.0846825 0.0851306 0.0917668 0.0846825 0.0913541 0 0.015679 0 0.015598 0.015679 0.0302395 0.015598 0.0300728 0 0.015598 0 0.0155262 0.015598 0.0300728 0.0155262 0.0299245 0.0302395 0.0437309 0.0300728 0.0434696 0.0437309 0.0560608 0.0434696 0.0557114 