# vtk DataFile Version 3.0
#This file was generated by the deal.II library on 2022/1/6 at 22:37:18
ASCII
DATASET UNSTRUCTURED_GRID

POINTS 16384 double
0 0 0
0.1875 0 0
0 0.046875 0
0.1875 0.046875 0
0.1875 0 0
0.375 0 0
0.1875 0.046875 0
0.375 0.046875 0
0 0.046875 0
0.1875 0.046875 0
0 0.09375 0
0.1875 0.09375 0
0.1875 0.046875 0
0.375 0.046875 0
0.1875 0.09375 0
0.375 0.09375 0
0.375 0 0
0.5625 0 0
0.375 0.046875 0
0.5625 0.046875 0
0.5625 0 0
0.75 0 0
0.5625 0.046875 0
0.75 0.046875 0
0.375 0.046875 0
0.5625 0.046875 0
0.375 0.09375 0
0.5625 0.09375 0
0.5625 0.046875 0
0.75 0.046875 0
0.5625 0.09375 0
0.75 0.09375 0
0 0.09375 0
0.1875 0.09375 0
0 0.140625 0
0.1875 0.140625 0
0.1875 0.09375 0
0.375 0.09375 0
0.1875 0.140625 0
0.375 0.140625 0
0 0.140625 0
0.1875 0.140625 0
0 0.1875 0
0.1875 0.1875 0
0.1875 0.140625 0
0.375 0.140625 0
0.1875 0.1875 0
0.375 0.1875 0
0.375 0.09375 0
0.5625 0.09375 0
0.375 0.140625 0
0.5625 0.140625 0
0.5625 0.09375 0
0.75 0.09375 0
0.5625 0.140625 0
0.75 0.140625 0
0.375 0.140625 0
0.5625 0.140625 0
0.375 0.1875 0
0.5625 0.1875 0
0.5625 0.140625 0
0.75 0.140625 0
0.5625 0.1875 0
0.75 0.1875 0
0.75 0 0
0.9375 0 0
0.75 0.046875 0
0.9375 0.046875 0
0.9375 0 0
1.125 0 0
0.9375 0.046875 0
1.125 0.046875 0
0.75 0.046875 0
0.9375 0.046875 0
0.75 0.09375 0
0.9375 0.09375 0
0.9375 0.046875 0
1.125 0.046875 0
0.9375 0.09375 0
1.125 0.09375 0
1.125 0 0
1.3125 0 0
1.125 0.046875 0
1.3125 0.046875 0
1.3125 0 0
1.5 0 0
1.3125 0.046875 0
1.5 0.046875 0
1.125 0.046875 0
1.3125 0.046875 0
1.125 0.09375 0
1.3125 0.09375 0
1.3125 0.046875 0
1.5 0.046875 0
1.3125 0.09375 0
1.5 0.09375 0
0.75 0.09375 0
0.9375 0.09375 0
0.75 0.140625 0
0.9375 0.140625 0
0.9375 0.09375 0
1.125 0.09375 0
0.9375 0.140625 0
1.125 0.140625 0
0.75 0.140625 0
0.9375 0.140625 0
0.75 0.1875 0
0.9375 0.1875 0
0.9375 0.140625 0
1.125 0.140625 0
0.9375 0.1875 0
1.125 0.1875 0
1.125 0.09375 0
1.3125 0.09375 0
1.125 0.140625 0
1.3125 0.140625 0
1.3125 0.09375 0
1.5 0.09375 0
1.3125 0.140625 0
1.5 0.140625 0
1.125 0.140625 0
1.3125 0.140625 0
1.125 0.1875 0
1.3125 0.1875 0
1.3125 0.140625 0
1.5 0.140625 0
1.3125 0.1875 0
1.5 0.1875 0
0 0.1875 0
0.1875 0.1875 0
0 0.234375 0
0.1875 0.234375 0
0.1875 0.1875 0
0.375 0.1875 0
0.1875 0.234375 0
0.375 0.234375 0
0 0.234375 0
0.1875 0.234375 0
0 0.28125 0
0.1875 0.28125 0
0.1875 0.234375 0
0.375 0.234375 0
0.1875 0.28125 0
0.375 0.28125 0
0.375 0.1875 0
0.5625 0.1875 0
0.375 0.234375 0
0.5625 0.234375 0
0.5625 0.1875 0
0.75 0.1875 0
0.5625 0.234375 0
0.75 0.234375 0
0.375 0.234375 0
0.5625 0.234375 0
0.375 0.28125 0
0.5625 0.28125 0
0.5625 0.234375 0
0.75 0.234375 0
0.5625 0.28125 0
0.75 0.28125 0
0 0.28125 0
0.1875 0.28125 0
0 0.328125 0
0.1875 0.328125 0
0.1875 0.28125 0
0.375 0.28125 0
0.1875 0.328125 0
0.375 0.328125 0
0 0.328125 0
0.1875 0.328125 0
0 0.375 0
0.1875 0.375 0
0.1875 0.328125 0
0.375 0.328125 0
0.1875 0.375 0
0.375 0.375 0
0.375 0.28125 0
0.5625 0.28125 0
0.375 0.328125 0
0.5625 0.328125 0
0.5625 0.28125 0
0.75 0.28125 0
0.5625 0.328125 0
0.75 0.328125 0
0.375 0.328125 0
0.5625 0.328125 0
0.375 0.375 0
0.5625 0.375 0
0.5625 0.328125 0
0.75 0.328125 0
0.5625 0.375 0
0.75 0.375 0
0.75 0.1875 0
0.9375 0.1875 0
0.75 0.234375 0
0.9375 0.234375 0
0.9375 0.1875 0
1.125 0.1875 0
0.9375 0.234375 0
1.125 0.234375 0
0.75 0.234375 0
0.9375 0.234375 0
0.75 0.28125 0
0.9375 0.28125 0
0.9375 0.234375 0
1.125 0.234375 0
0.9375 0.28125 0
1.125 0.28125 0
1.125 0.1875 0
1.3125 0.1875 0
1.125 0.234375 0
1.3125 0.234375 0
1.3125 0.1875 0
1.5 0.1875 0
1.3125 0.234375 0
1.5 0.234375 0
1.125 0.234375 0
1.3125 0.234375 0
1.125 0.28125 0
1.3125 0.28125 0
1.3125 0.234375 0
1.5 0.234375 0
1.3125 0.28125 0
1.5 0.28125 0
0.75 0.28125 0
0.9375 0.28125 0
0.75 0.328125 0
0.9375 0.328125 0
0.9375 0.28125 0
1.125 0.28125 0
0.9375 0.328125 0
1.125 0.328125 0
0.75 0.328125 0
0.9375 0.328125 0
0.75 0.375 0
0.9375 0.375 0
0.9375 0.328125 0
1.125 0.328125 0
0.9375 0.375 0
1.125 0.375 0
1.125 0.28125 0
1.3125 0.28125 0
1.125 0.328125 0
1.3125 0.328125 0
1.3125 0.28125 0
1.5 0.28125 0
1.3125 0.328125 0
1.5 0.328125 0
1.125 0.328125 0
1.3125 0.328125 0
1.125 0.375 0
1.3125 0.375 0
1.3125 0.328125 0
1.5 0.328125 0
1.3125 0.375 0
1.5 0.375 0
1.5 0 0
1.6875 0 0
1.5 0.046875 0
1.6875 0.046875 0
1.6875 0 0
1.875 0 0
1.6875 0.046875 0
1.875 0.046875 0
1.5 0.046875 0
1.6875 0.046875 0
1.5 0.09375 0
1.6875 0.09375 0
1.6875 0.046875 0
1.875 0.046875 0
1.6875 0.09375 0
1.875 0.09375 0
1.875 0 0
2.0625 0 0
1.875 0.046875 0
2.0625 0.046875 0
2.0625 0 0
2.25 0 0
2.0625 0.046875 0
2.25 0.046875 0
1.875 0.046875 0
2.0625 0.046875 0
1.875 0.09375 0
2.0625 0.09375 0
2.0625 0.046875 0
2.25 0.046875 0
2.0625 0.09375 0
2.25 0.09375 0
1.5 0.09375 0
1.6875 0.09375 0
1.5 0.140625 0
1.6875 0.140625 0
1.6875 0.09375 0
1.875 0.09375 0
1.6875 0.140625 0
1.875 0.140625 0
1.5 0.140625 0
1.6875 0.140625 0
1.5 0.1875 0
1.6875 0.1875 0
1.6875 0.140625 0
1.875 0.140625 0
1.6875 0.1875 0
1.875 0.1875 0
1.875 0.09375 0
2.0625 0.09375 0
1.875 0.140625 0
2.0625 0.140625 0
2.0625 0.09375 0
2.25 0.09375 0
2.0625 0.140625 0
2.25 0.140625 0
1.875 0.140625 0
2.0625 0.140625 0
1.875 0.1875 0
2.0625 0.1875 0
2.0625 0.140625 0
2.25 0.140625 0
2.0625 0.1875 0
2.25 0.1875 0
2.25 0 0
2.4375 0 0
2.25 0.046875 0
2.4375 0.046875 0
2.4375 0 0
2.625 0 0
2.4375 0.046875 0
2.625 0.046875 0
2.25 0.046875 0
2.4375 0.046875 0
2.25 0.09375 0
2.4375 0.09375 0
2.4375 0.046875 0
2.625 0.046875 0
2.4375 0.09375 0
2.625 0.09375 0
2.625 0 0
2.8125 0 0
2.625 0.046875 0
2.8125 0.046875 0
2.8125 0 0
3 0 0
2.8125 0.046875 0
3 0.046875 0
2.625 0.046875 0
2.8125 0.046875 0
2.625 0.09375 0
2.8125 0.09375 0
2.8125 0.046875 0
3 0.046875 0
2.8125 0.09375 0
3 0.09375 0
2.25 0.09375 0
2.4375 0.09375 0
2.25 0.140625 0
2.4375 0.140625 0
2.4375 0.09375 0
2.625 0.09375 0
2.4375 0.140625 0
2.625 0.140625 0
2.25 0.140625 0
2.4375 0.140625 0
2.25 0.1875 0
2.4375 0.1875 0
2.4375 0.140625 0
2.625 0.140625 0
2.4375 0.1875 0
2.625 0.1875 0
2.625 0.09375 0
2.8125 0.09375 0
2.625 0.140625 0
2.8125 0.140625 0
2.8125 0.09375 0
3 0.09375 0
2.8125 0.140625 0
3 0.140625 0
2.625 0.140625 0
2.8125 0.140625 0
2.625 0.1875 0
2.8125 0.1875 0
2.8125 0.140625 0
3 0.140625 0
2.8125 0.1875 0
3 0.1875 0
1.5 0.1875 0
1.6875 0.1875 0
1.5 0.234375 0
1.6875 0.234375 0
1.6875 0.1875 0
1.875 0.1875 0
1.6875 0.234375 0
1.875 0.234375 0
1.5 0.234375 0
1.6875 0.234375 0
1.5 0.28125 0
1.6875 0.28125 0
1.6875 0.234375 0
1.875 0.234375 0
1.6875 0.28125 0
1.875 0.28125 0
1.875 0.1875 0
2.0625 0.1875 0
1.875 0.234375 0
2.0625 0.234375 0
2.0625 0.1875 0
2.25 0.1875 0
2.0625 0.234375 0
2.25 0.234375 0
1.875 0.234375 0
2.0625 0.234375 0
1.875 0.28125 0
2.0625 0.28125 0
2.0625 0.234375 0
2.25 0.234375 0
2.0625 0.28125 0
2.25 0.28125 0
1.5 0.28125 0
1.6875 0.28125 0
1.5 0.328125 0
1.6875 0.328125 0
1.6875 0.28125 0
1.875 0.28125 0
1.6875 0.328125 0
1.875 0.328125 0
1.5 0.328125 0
1.6875 0.328125 0
1.5 0.375 0
1.6875 0.375 0
1.6875 0.328125 0
1.875 0.328125 0
1.6875 0.375 0
1.875 0.375 0
1.875 0.28125 0
2.0625 0.28125 0
1.875 0.328125 0
2.0625 0.328125 0
2.0625 0.28125 0
2.25 0.28125 0
2.0625 0.328125 0
2.25 0.328125 0
1.875 0.328125 0
2.0625 0.328125 0
1.875 0.375 0
2.0625 0.375 0
2.0625 0.328125 0
2.25 0.328125 0
2.0625 0.375 0
2.25 0.375 0
2.25 0.1875 0
2.4375 0.1875 0
2.25 0.234375 0
2.4375 0.234375 0
2.4375 0.1875 0
2.625 0.1875 0
2.4375 0.234375 0
2.625 0.234375 0
2.25 0.234375 0
2.4375 0.234375 0
2.25 0.28125 0
2.4375 0.28125 0
2.4375 0.234375 0
2.625 0.234375 0
2.4375 0.28125 0
2.625 0.28125 0
2.625 0.1875 0
2.8125 0.1875 0
2.625 0.234375 0
2.8125 0.234375 0
2.8125 0.1875 0
3 0.1875 0
2.8125 0.234375 0
3 0.234375 0
2.625 0.234375 0
2.8125 0.234375 0
2.625 0.28125 0
2.8125 0.28125 0
2.8125 0.234375 0
3 0.234375 0
2.8125 0.28125 0
3 0.28125 0
2.25 0.28125 0
2.4375 0.28125 0
2.25 0.328125 0
2.4375 0.328125 0
2.4375 0.28125 0
2.625 0.28125 0
2.4375 0.328125 0
2.625 0.328125 0
2.25 0.328125 0
2.4375 0.328125 0
2.25 0.375 0
2.4375 0.375 0
2.4375 0.328125 0
2.625 0.328125 0
2.4375 0.375 0
2.625 0.375 0
2.625 0.28125 0
2.8125 0.28125 0
2.625 0.328125 0
2.8125 0.328125 0
2.8125 0.28125 0
3 0.28125 0
2.8125 0.328125 0
3 0.328125 0
2.625 0.328125 0
2.8125 0.328125 0
2.625 0.375 0
2.8125 0.375 0
2.8125 0.328125 0
3 0.328125 0
2.8125 0.375 0
3 0.375 0
0 0.375 0
0.1875 0.375 0
0 0.421875 0
0.1875 0.421875 0
0.1875 0.375 0
0.375 0.375 0
0.1875 0.421875 0
0.375 0.421875 0
0 0.421875 0
0.1875 0.421875 0
0 0.46875 0
0.1875 0.46875 0
0.1875 0.421875 0
0.375 0.421875 0
0.1875 0.46875 0
0.375 0.46875 0
0.375 0.375 0
0.5625 0.375 0
0.375 0.421875 0
0.5625 0.421875 0
0.5625 0.375 0
0.75 0.375 0
0.5625 0.421875 0
0.75 0.421875 0
0.375 0.421875 0
0.5625 0.421875 0
0.375 0.46875 0
0.5625 0.46875 0
0.5625 0.421875 0
0.75 0.421875 0
0.5625 0.46875 0
0.75 0.46875 0
0 0.46875 0
0.1875 0.46875 0
0 0.515625 0
0.1875 0.515625 0
0.1875 0.46875 0
0.375 0.46875 0
0.1875 0.515625 0
0.375 0.515625 0
0 0.515625 0
0.1875 0.515625 0
0 0.5625 0
0.1875 0.5625 0
0.1875 0.515625 0
0.375 0.515625 0
0.1875 0.5625 0
0.375 0.5625 0
0.375 0.46875 0
0.5625 0.46875 0
0.375 0.515625 0
0.5625 0.515625 0
0.5625 0.46875 0
0.75 0.46875 0
0.5625 0.515625 0
0.75 0.515625 0
0.375 0.515625 0
0.5625 0.515625 0
0.375 0.5625 0
0.5625 0.5625 0
0.5625 0.515625 0
0.75 0.515625 0
0.5625 0.5625 0
0.75 0.5625 0
0.75 0.375 0
0.9375 0.375 0
0.75 0.421875 0
0.9375 0.421875 0
0.9375 0.375 0
1.125 0.375 0
0.9375 0.421875 0
1.125 0.421875 0
0.75 0.421875 0
0.9375 0.421875 0
0.75 0.46875 0
0.9375 0.46875 0
0.9375 0.421875 0
1.125 0.421875 0
0.9375 0.46875 0
1.125 0.46875 0
1.125 0.375 0
1.3125 0.375 0
1.125 0.421875 0
1.3125 0.421875 0
1.3125 0.375 0
1.5 0.375 0
1.3125 0.421875 0
1.5 0.421875 0
1.125 0.421875 0
1.3125 0.421875 0
1.125 0.46875 0
1.3125 0.46875 0
1.3125 0.421875 0
1.5 0.421875 0
1.3125 0.46875 0
1.5 0.46875 0
0.75 0.46875 0
0.9375 0.46875 0
0.75 0.515625 0
0.9375 0.515625 0
0.9375 0.46875 0
1.125 0.46875 0
0.9375 0.515625 0
1.125 0.515625 0
0.75 0.515625 0
0.9375 0.515625 0
[...]
POINT_DATA 16384
SCALARS x_displacement double 1
LOOKUP_TABLE default
0 0.0299198 0 0.0272568 0.0299198 0.0518756 0.0272568 0.0510157 0 0.0272568 0 0.0253867 0.0272568 0.0510157 0.0253867 0.0489431 0.0518756 0.0634187 0.0510157 0.0628326 0.0634187 0.0644806 0.0628326 0.0642207 0.0510157 0.0628326 0.0489431 0.0614576 0.0628326 0.0642207 0.0614576 0.06346 0 0.0253867 0 0.0237744 0.0253867 0.0489431 0.0237744 0.0459429 0 0.0237744 0 0.0223737 0.0237744 0.0459429 0.0223737 0.0427704 0.0489431 0.0614576 0.0459429 0.0592098 0.0614576 0.06346 0.0592098 0.0622382 0.0459429 0.0592098 0.0427704 0.0559473 0.0592098 0.0622382 0.0559473 0.0606918 0.0644806 0.0646328 0.0642207 0.0646465 0.0646328 0.065103 0.0646465 0.0652709 0.0642207 0.0646465 0.06346 0.0643941 0.0646465 0.0652709 0.0643941 0.0652544 0.065103 0.0656719 0.0652709 0.0658174 0.0656719 0.0661702 0.0658174 0.0662465 0.0652709 0.0658174 0.0652544 0.0658521 0.0658174 0.0662465 0.0658521 0.066255 0.06346 0.0643941 0.0622382 0.0639166 0.0643941 0.0652544 0.0639166 0.065079 0.0622382 0.0639166 0.0606918 0.063261 0.0639166 0.065079 0.063261 0.0647647 0.0652544 0.0658521 0.065079 0.0657817 0.0658521 0.066255 0.0657817 0.0661982 0.065079 0.0657817 0.0647647 0.0656168 0.0657817 0.0661982 0.0656168 0.0660791 0 0.0223737 0 0.021159 0.0223737 0.0427704 0.021159 0.0397382 0 0.021159 0 0.0200665 0.021159 0.0397382 0.0200665 0.0373324 0.0427704 0.0559473 0.0397382 0.0525573 0.0559473 0.0606918 0.0525573 0.0590608 0.0397382 0.0525573 0.0373324 0.0498529 0.0525573 0.0590608 0.0498529 0.057385 0 0.0200665 0 0.0191342 0.0200665 0.0373324 0.0191342 0.0354226 0 0.0191342 0 0.0183607 0.0191342 0.0354226 0.0183607 0.0338988 0.0373324 0.0498529 0.0354226 0.0476983 0.0498529 0.057385 0.0476983 0.0557956 0.0354226 0.0476983 0.0338988 0.0459394 0.0476983 0.0557956 0.0459394 0.0543455 0.0606918 0.063261 0.0590608 0.062451 0.063261 0.0647647 0.062451 0.0643378 0.0590608 0.062451 0.057385 0.0615451 0.062451 0.0643378 0.0615451 0.0638189 0.0647647 0.0656168 0.0643378 0.0653679 0.0656168 0.0660791 0.0653679 0.0659023 0.0643378 0.0653679 0.0638189 0.0650468 0.0653679 0.0659023 0.0650468 0.0656731 0.057385 0.0615451 0.0557956 0.0605781 0.0615451 0.0638189 0.0605781 0.0632316 0.0557956 0.0605781 0.0543455 0.059593 0.0605781 0.0632316 0.059593 0.0625949 0.0638189 0.0650468 0.0632316 0.0646649 0.0650468 0.0656731 0.0646649 0.0653975 0.0632316 0.0646649 0.0625949 0.0642343 0.0646649 0.0653975 0.0642343 0.0650816 0.0661702 0.066584 0.0662465 0.0665808 0.066584 0.0669343 0.0665808 0.0668565 0.0662465 0.0665808 0.066255 0.0665378 0.0665808 0.0668565 0.0665378 0.0667569 0.0669343 0.0672404 0.0668565 0.0670992 0.0672404 0.0675133 0.0670992 0.0673212 0.0668565 0.0670992 0.0667569 0.0669474 0.0670992 0.0673212 0.0669474 0.0671252 0.066255 0.0665378 0.0661982 0.0664548 0.0665378 0.0667569 0.0664548 0.0666343 0.0661982 0.0664548 0.0660791 0.0663327 0.0664548 0.0666343 0.0663327 0.0664882 0.0667569 0.0669474 0.0666343 0.0667835 0.0669474 0.0671252 0.0667835 0.0669239 0.0666343 0.0667835 0.0664882 0.0666065 0.0667835 0.0669239 0.0666065 0.0667161 0.0675133 0.0677574 0.0673212 0.0675257 0.0677574 0.0679732 0.0675257 0.0677115 0.0673212 0.0675257 0.0671252 0.067294 0.0675257 0.0677115 0.067294 0.0674519 0.0679732 0.0681604 0.0677115 0.0678765 0.0681604 0.0683195 0.0678765 0.0680191 0.0677115 0.0678765 0.0674519 0.0675954 0.0678765 0.0680191 0.0675954 0.0677218 0.0671252 0.067294 0.0669239 0.067061 0.067294 0.0674519 0.067061 0.0671932 0.0669239 0.067061 0.0667161 0.0668257 0.067061 0.0671932 0.0668257 0.0669345 0.0674519 0.0675954 0.0671932 0.0673163 0.0675954 0.0677218 0.0673163 0.0674271 0.0671932 0.0673163 0.0669345 0.0670386 0.0673163 0.0674271 0.0670386 0.0671343 0.0660791 0.0663327 0.0659023 0.0661727 0.0663327 0.0664882 0.0661727 0.0663184 0.0659023 0.0661727 0.0656731 0.0659771 0.0661727 0.0663184 0.0659771 0.0661256 0.0664882 0.0666065 0.0663184 0.0664157 0.0666065 0.0667161 0.0664157 0.066501 0.0663184 0.0664157 0.0661256 0.0662107 0.0664157 0.066501 0.0662107 0.0662778 0.0656731 0.0659771 0.0653975 0.0657484 0.0659771 0.0661256 0.0657484 0.0659105 0.0653975 0.0657484 0.0650816 0.0654897 0.0657484 0.0659105 0.0654897 0.0656744 0.0661256 0.0662107 0.0659105 0.0659916 0.0662107 0.0662778 0.0659916 0.0660462 0.0659105 0.0659916 0.0656744 0.0657586 0.0659916 0.0660462 0.0657586 0.0658059 0.0667161 0.0668257 0.066501 0.066587 0.0668257 0.0669345 0.066587 0.066675 0.066501 0.066587 0.0662778 0.0663444 0.066587 0.066675 0.0663444 0.0664141 0.0669345 0.0670386 0.066675 0.0667616 0.0670386 0.0671343 0.0667616 0.0668429 0.066675 0.0667616 0.0664141 0.0664846 0.0667616 0.0668429 0.0664846 0.0665524 0.0662778 0.0663444 0.0660462 0.0660972 0.0663444 0.0664141 0.0660972 0.0661511 0.0660462 0.0660972 0.0658059 0.065845 0.0660972 0.0661511 0.065845 0.0658856 0.0664141 0.0664846 0.0661511 0.0662071 0.0664846 0.0665524 0.0662071 0.0662623 0.0661511 0.0662071 0.0658856 0.0659287 0.0662071 0.0662623 0.0659287 0.0659722 0 0.0183607 0 0.0177277 0.0183607 0.0338988 0.0177277 0.032674 0 0.0177277 0 0.0172122 0.0177277 0.032674 0.0172122 0.0316822 0.0338988 0.0459394 0.032674 0.044483 0.0459394 0.0543455 0.044483 0.0530432 0.032674 0.044483 0.0316822 0.0432651 0.044483 0.0530432 0.0432651 0.0518817 0 0.0172122 0 0.0167923 0.0172122 0.0316822 0.0167923 0.0308729 0 0.0167923 0 0.0164489 0.0167923 0.0308729 0.0164489 0.0302074 0.0316822 0.0432651 0.0308729 0.0422389 0.0432651 0.0518817 0.0422389 0.0508489 0.0308729 0.0422389 0.0302074 0.0413684 0.0422389 0.0508489 0.0413684 0.0499316 0.0543455 0.059593 0.0530432 0.0586238 0.059593 0.0625949 0.0586238 0.0619274 0.0530432 0.0586238 0.0518817 0.0576924 0.0586238 0.0619274 0.0576924 0.0612461 0.0625949 0.0642343 0.0619274 0.0637659 0.0642343 0.0650816 0.0637659 0.0647317 0.0619274 0.0637659 0.0612461 0.06327 0.0637659 0.0647317 0.06327 0.0643539 0.0518817 0.0576924 0.0508489 0.056811 0.0576924 0.0612461 0.056811 0.0605652 0.0508489 0.056811 0.0499316 0.0559854 0.056811 0.0605652 0.0559854 0.0598953 0.0612461 0.06327 0.0605652 0.0627557 0.06327 0.0643539 0.0627557 0.0639541 0.0605652 0.0627557 0.0598953 0.0622316 0.0627557 0.0639541 0.0622316 0.0635379 0 0.0164489 0 0.0161664 0.0164489 0.0302074 0.0161664 0.0296557 0 0.0161664 0 0.0159322 0.0161664 0.0296557 0.0159322 0.0291945 0.0302074 0.0413684 0.0296557 0.0406255 0.0413684 0.0499316 0.0406255 0.0491164 0.0296557 0.0406255 0.0291945 0.0399876 0.0406255 0.0491164 0.0399876 0.0483912 0 0.0159322 0 0.0157364 0.0159322 0.0291945 0.0157364 0.0288059 0 0.0157364 0 0.0155712 0.0157364 0.0288059 0.0155712 0.0284754 0.0291945 0.0399876 0.0288059 0.0394368 0.0399876 0.0483912 0.0394368 0.0477449 0.0288059 0.0394368 0.0284754 0.0389581 0.0394368 0.0477449 0.0389581 0.0471674 0.0499316 0.0559854 0.0491164 0.0552175 0.0559854 0.0598953 0.0552175 0.0592442 0.0491164 0.0552175 0.0483912 0.0545065 0.0552175 0.0592442 0.0545065 0.0586173 0.0598953 0.0622316 0.0592442 0.0617046 0.0622316 0.0635379 0.0617046 0.0631103 0.0592442 0.0617046 0.0586173 0.0611807 0.0617046 0.0631103 0.0611807 0.0626759 0.0483912 0.0545065 0.0477449 0.05385 0.0545065 0.0586173 0.05385 0.0580178 0.0477449 0.05385 0.0471674 0.0532449 0.05385 0.0580178 0.0532449 0.0574474 0.0586173 0.0611807 0.0580178 0.0606645 0.0611807 0.0626759 0.0606645 0.0622385 0.0580178 0.0606645 0.0574474 0.0601597 0.0606645 0.0622385 0.0601597 0.0618016 0.0650816 0.0654897 0.0647317 0.0652042 0.0654897 0.0656744 0.0652042 0.0654188 0.0647317 0.0652042 0.0643539 0.0648953 0.0652042 0.0654188 0.0648953 0.0651454 0.0656744 0.0657586 0.0654188 0.0655122 0.0657586 0.0658059 0.0655122 0.065557 0.0654188 0.0655122 0.0651454 0.065253 0.0655122 0.065557 0.065253 0.0652995 0.0643539 0.0648953 0.0639541 0.0645665 0.0648953 0.0651454 0.0645665 0.0648561 0.0639541 0.0645665 0.0635379 0.0642211 0.0645665 0.0648561 0.0642211 0.0645527 0.0651454 0.065253 0.0648561 0.0649821 0.065253 0.0652995 0.0649821 0.0650337 0.0648561 0.0649821 0.0645527 0.0647003 0.0649821 0.0650337 0.0647003 0.0647599 0.0658059 0.065845 0.065557 0.0655876 0.065845 0.0658856 0.0655876 0.0656172 0.065557 0.0655876 0.0652995 0.0653247 0.0655876 0.0656172 0.0653247 0.0653456 0.0658856 0.0659287 0.0656172 0.0656489 0.0659287 0.0659722 0.0656489 0.0656818 0.0656172 0.0656489 0.0653456 0.0653675 0.0656489 0.0656818 0.0653675 0.0653907 0.0652995 0.0653247 0.0650337 0.0650563 0.0653247 0.0653456 0.0650563 0.0650706 0.0650337 0.0650563 0.0647599 0.0647825 0.0650563 0.0650706 0.0647825 0.0647919 0.0653456 0.0653675 0.0650706 0.0650841 0.0653675 0.0653907 0.0650841 0.0650986 0.0650706 0.0650841 0.0647919 0.0647985 0.0650841 0.0650986 0.0647985 0.0648053 0.0635379 0.0642211 0.0631103 0.0638625 0.0642211 0.0645527 0.0638625 0.0642372 0.0631103 0.0638625 0.0626759 0.0634938 0.0638625 0.0642372 0.0634938 0.0639116 0.0645527 0.0647003 0.0642372 0.0644086 0.0647003 0.0647599 0.0644086 0.0644788 0.0642372 0.0644086 0.0639116 0.0641082 0.0644086 0.0644788 0.0641082 0.0641907 0.0626759 0.0634938 0.0622385 0.0631177 0.0634938 0.0639116 0.0631177 0.0635777 0.0622385 0.0631177 0.0618016 0.0627369 0.0631177 0.0635777 0.0627369 0.0632372 0.0639116 0.0641082 0.0635777 0.0638002 0.0641082 0.0641907 0.0638002 0.0638963 0.0635777 0.0638002 0.0632372 0.0634856 0.0638002 0.0638963 0.0634856 0.0635962 0.0647599 0.0647825 0.0644788 0.0645033 0.0647825 0.0647919 0.0645033 0.0645097 0.0644788 0.0645033 0.0641907 0.0642189 0.0645033 0.0645097 0.0642189 0.0642238 0.0647919 0.0647985 0.0645097 0.0645105 0.0647985 0.0648053 0.0645105 0.0645105 0.0645097 0.0645105 0.0642238 0.06422 0.0645105 0.0645105 0.06422 0.0642141 0.0641907 0.0642189 0.0638963 0.0639297 0.0642189 0.0642238 0.0639297 0.0639342 0.0638963 0.0639297 0.0635962 0.0636358 0.0639297 0.0639342 0.0636358 0.063641 0.0642238 0.06422 0.0639342 0.0639269 0.06422 0.0642141 0.0639269 0.063916 0.0639342 0.0639269 0.063641 0.0636312 0.0639269 0.063916 0.0636312 0.0636159 0.0683195 0.0684516 0.0680191 0.0681393 0.0684516 0.0685592 0.0681393 0.0682384 0.0680191 0.0681393 0.0677218 0.0678301 0.0681393 0.0682384 0.0678301 0.0679203 0.0685592 0.068645 0.0682384 0.0683182 0.068645 0.0687121 0.0683182 0.0683813 0.0682384 0.0683182 0.0679203 0.0679939 0.0683182 0.0683813 0.0679939 0.0680525 0.0677218 0.0678301 0.0674271 0.0675234 0.0678301 0.0679203 0.0675234 0.0676047 0.0674271 0.0675234 0.0671343 0.0672188 0.0675234 0.0676047 0.0672188 0.0672912 0.0679203 0.0679939 0.0676047 0.0676717 0.0679939 0.0680525 0.0676717 0.0677256 0.0676047 0.0676717 0.0672912 0.0673514 0.0676717 0.0677256 0.0673514 0.0674003 0.0687121 0.0687637 0.0683813 0.0684301 0.0687637 0.0688024 0.0684301 0.0684672 0.0683813 0.0684301 0.0680525 0.0680983 0.0684301 0.0684672 0.0680983 0.0681334 0.0688024 0.068831 0.0684672 0.0684948 0.068831 0.0688516 0.0684948 0.068515 0.0684672 0.0684948 0.0681334 0.0681597 0.0684948 0.068515 0.0681597 0.0681791 0.0680525 0.0680983 0.0677256 0.067768 0.0680983 0.0681334 0.067768 0.0678008 0.0677256 0.067768 0.0674003 0.0674392 0.067768 0.0678008 0.0674392 0.0674694 0.0681334 0.0681597 0.0678008 0.0678257 0.0681597 0.0681791 0.0678257 0.0678441 0.0678008 0.0678257 0.0674694 0.0674925 0.0678257 0.0678441 0.0674925 0.0675098 0.0671343 0.0672188 0.0668429 0.066916 0.0672188 0.0672912 0.066916 0.0669794 0.0668429 0.066916 0.0665524 0.0666145 0.066916 0.0669794 0.0666145 0.0666691 0.0672912 0.0673514 0.0669794 0.0670328 0.0673514 0.0674003 0.0670328 0.0670766 0.0669794 0.0670328 0.0666691 0.0667156 0.0670328 0.0670766 0.0667156 0.0667541 0.0665524 0.0666145 0.0662623 0.0663138 0.0666145 0.0666691 0.0663138 0.0663599 0.0662623 0.0663138 0.0659722 0.0660137 0.0663138 0.0663599 0.0660137 0.0660514 0.0666691 0.0667156 0.0663599 0.0663995 0.0667156 0.0667541 0.0663995 0.0664327 0.0663599 0.0663995 0.0660514 0.0660844 0.0663995 0.0664327 0.0660844 0.0661122 0.0674003 0.0674392 0.0670766 0.0671116 0.0674392 0.0674694 0.0671116 0.0671391 0.0670766 0.0671116 0.0667541 0.0667851 0.0671116 0.0671391 0.0667851 0.0668097 0.0674694 0.0674925 0.0671391 0.0671602 0.0674925 0.0675098 0.0671602 0.0671761 0.0671391 0.0671602 0.0668097 0.0668287 0.0671602 0.0671761 0.0668287 0.0668431 0.0667541 0.0667851 0.0664327 0.0664597 0.0667851 0.0668097 0.0664597 0.0664812 0.0664327 0.0664597 0.0661122 0.066135 0.0664597 0.0664812 0.066135 0.0661533 0.0668097 0.0668287 0.0664812 0.0664979 0.0668287 0.0668431 0.0664979 0.0665107 0.0664812 0.0664979 0.0661533 0.0661677 0.0664979 0.0665107 0.0661677 0.0661788 0.0688516 0.0688661 0.068515 0.0685293 0.0688661 0.068876 0.0685293 0.0685392 0.068515 0.0685293 0.0681791 0.068193 0.0685293 0.0685392 0.068193 0.0682028 0.068876 0.0688825 0.0685392 0.0685458 0.0688825 0.0688865 0.0685458 0.06855 0.0685392 0.0685458 0.0682028 0.0682094 0.0685458 0.06855 0.0682094 0.0682137 0.0681791 0.068193 0.0678441 0.0678574 0.068193 0.0682028 0.0678574 0.0678669 0.0678441 0.0678574 0.0675098 0.0675224 0.0678574 0.0678669 0.0675224 0.0675314 0.0682028 0.0682094 0.0678669 0.0678734 0.0682094 0.0682137 0.0678734 0.0678777 0.0678669 0.0678734 0.0675314 0.0675377 0.0678734 0.0678777 0.0675377 0.0675419 0.0688865 0.0688888 0.06855 0.0685525 0.0688888 0.0688899 0.0685525 0.0685538 0.06855 0.0685525 0.0682137 0.0682163 0.0685525 0.0685538 0.0682163 0.0682178 0.0688899 0.0688902 0.0685538 0.0685543 0.0688902 0.0688901 0.0685543 0.0685543 0.0685538 0.0685543 0.0682178 0.0682185 0.0685543 0.0685543 0.0682185 0.0682187 0.0682137 0.0682163 0.0678777 0.0678804 0.0682163 0.0682178 0.0678804 0.0678819 0.0678777 0.0678804 0.0675419 0.0675446 0.0678804 0.0678819 0.0675446 0.0675462 0.0682178 0.0682185 0.0678819 0.0678828 0.0682185 0.0682187 0.0678828 0.067883 0.0678819 0.0678828 0.0675462 0.0675471 0.0678828 0.067883 0.0675471 0.0675475 0.0675098 0.0675224 0.0671761 0.0671879 0.0675224 0.0675314 0.0671879 0.0671963 0.0671761 0.0671879 0.0668431 0.0668539 0.0671879 0.0671963 0.0668539 0.0668616 0.0675314 0.0675377 0.0671963 0.0672023 0.0675377 0.0675419 0.0672023 0.0672063 0.0671963 0.0672023 0.0668616 0.0668672 0.0672023 0.0672063 0.0668672 0.0668709 0.0668431 0.0668539 0.0665107 0.0665203 0.0668539 0.0668616 0.0665203 0.0665273 0.0665107 0.0665203 0.0661788 0.0661871 0.0665203 0.0665273 0.0661871 0.0661933 0.0668616 0.0668672 0.0665273 0.0665323 0.0668672 0.0668709 0.0665323 0.0665358 0.0665273 0.0665323 0.0661933 0.0661977 0.0665323 0.0665358 0.0661977 0.0662008 0.0675419 0.0675446 0.0672063 0.0672089 0.0675446 0.0675462 0.0672089 0.0672106 0.0672063 0.0672089 0.0668709 0.0668735 0.0672089 0.0672106 0.0668735 0.066875 0.0675462 0.0675471 0.0672106 0.0672115 0.0675471 0.0675475 0.0672115 0.0672119 0.0672106 0.0672115 0.066875 0.066876 0.0672115 0.0672119 0.066876 0.0668765 0.0668709 0.0668735 0.0665358 0.0665381 0.0668735 0.066875 0.0665381 0.0665396 0.0665358 0.0665381 0.0662008 0.0662029 0.0665381 0.0665396 0.0662029 0.0662043 0.066875 0.066876 0.0665396 0.0665405 0.066876 0.0668765 0.0665405 0.066541 0.0665396 0.0665405 0.0662043 0.0662052 0.0665405 0.066541 0.0662052 0.0662056 0.0659722 0.0660137 0.0656818 0.0657139 0.0660137 0.0660514 0.0657139 0.0657436 0.0656818 0.0657139 0.0653907 0.065414 0.0657139 0.0657436 0.065414 0.065436 0.0660514 0.0660844 0.0657436 0.0657699 0.0660844 0.0661122 0.0657699 0.0657924 0.0657436 0.0657699 0.065436 0.0654559 0.0657699 0.0657924 0.0654559 0.0654731 0.0653907 0.065414 0.0650986 0.0651137 0.065414 0.065436 0.0651137 0.0651285 0.0650986 0.0651137 0.0648053 0.0648129 0.0651137 0.0651285 0.0648129 0.0648208 0.065436 0.0654559 0.0651285 0.0651422 0.0654559 0.0654731 0.0651422 0.0651543 0.0651285 0.0651422 0.0648208 0.0648286 0.0651422 0.0651543 0.0648286 0.0648357 0.0661122 0.066135 0.0657924 0.065811 0.066135 0.0661533 0.065811 0.0658261 0.0657924 0.065811 0.0654731 0.0654876 0.065811 0.0658261 0.0654876 0.0654994 0.0661533 0.0661677 0.0658261 0.0658381 0.0661677 0.0661788 0.0658381 0.0658473 0.0658261 0.0658381 0.0654994 0.0655089 0.0658381 0.0658473 0.0655089 0.0655163 0.0654731 0.0654876 0.0651543 0.0651646 0.0654876 0.0654994 0.0651646 0.0651732 0.0651543 0.0651646 0.0648357 0.0648419 0.0651646 0.0651732 0.0648419 0.0648472 0.0654994 0.0655089 0.0651732 0.0651801 0.0655089 0.0655163 0.0651801 0.0651855 0.0651732 0.0651801 0.0648472 0.0648515 0.0651801 0.0651855 0.0648515 0.064855 0.0648053 0.0648129 0.0645105 0.0645112 0.0648129 0.0648208 0.0645112 0.0645128 0.0645105 0.0645112 0.0642141 0.0642086 0.0645112 0.0645128 0.0642086 0.0642042 0.0648208 0.0648286 0.0645128 0.0645148 0.0648286 0.0648357 0.0645148 0.0645171 0.0645128 0.0645148 0.0642042 0.0642009 0.0645148 0.0645171 0.0642009 0.0641985 0.0642141 0.0642086 0.063916 0.0639048 0.0642086 0.0642042 0.0639048 0.0638949 0.063916 0.0639048 0.0636159 0.0635997 0.0639048 0.0638949 0.0635997 0.0635847 0.0642042 0.0642009 0.0638949 0.0638865 0.0642009 0.0641985 0.0638865 0.0638797 0.0638949 0.0638865 0.0635847 0.0635715 0.0638865 0.0638797 0.0635715 0.0635605 0.0648357 0.0648419 0.0645171 0.0645194 0.0648419 0.0648472 0.0645194 0.0645214 0.0645171 0.0645194 0.0641985 0.0641969 0.0645194 0.0645214 0.0641969 0.0641958 0.0648472 0.0648515 0.0645214 0.0645232 0.0648515 0.064855 0.0645232 0.0645247 0.0645214 0.0645232 0.0641958 0.064195 0.0645232 0.0645247 0.064195 0.0641946 0.0641985 0.0641969 0.0638797 0.0638743 0.0641969 0.0641958 0.0638743 0.0638701 0.0638797 0.0638743 0.0635605 0.0635515 0.0638743 0.0638701 0.0635515 0.0635444 0.0641958 0.064195 0.0638701 0.0638669 0.064195 0.0641946 0.0638669 0.0638645 0.0638701 0.0638669 0.0635444 0.0635388 0.0638669 0.0638645 0.0635388 0.0635345 0.0661788 0.0661871 0.0658473 0.0658544 0.0661871 0.0661933 0.0658544 0.0658596 0.0658473 0.0658544 0.0655163 0.0655219 0.0658544 0.0658596 0.0655219 0.0655261 0.0661933 0.0661977 0.0658596 0.0658634 0.0661977 0.0662008 0.0658634 0.065866 0.0658596 0.0658634 0.0655261 0.0655292 0.0658634 0.065866 0.0655292 0.0655314 0.0655163 0.0655219 0.0651855 0.0651897 0.0655219 0.0655261 0.0651897 0.0651929 0.0651855 0.0651897 0.064855 0.0648578 0.0651897 0.0651929 0.0648578 0.0648598 0.0655261 0.0655292 0.0651929 0.0651952 0.0655292 0.0655314 0.0651952 0.0651969 0.0651929 0.0651952 0.0648598 0.0648614 0.0651952 0.0651969 0.0648614 0.0648626 0.0662008 0.0662029 0.065866 0.0658679 0.0662029 0.0662043 0.0658679 0.0658691 0.065866 0.0658679 0.0655314 0.0655329 0.0658679 0.0658691 0.0655329 0.065534 0.0662043 0.0662052 0.0658691 0.0658699 0.0662052 0.0662056 0.0658699 0.0658703 0.0658691 0.0658699 0.065534 0.0655346 0.0658699 0.0658703 0.0655346 0.065535 0.0655314 0.0655329 0.0651969 0.0651981 0.0655329 0.065534 0.0651981 0.0651989 0.0651969 0.0651981 0.0648626 0.0648634 0.0651981 0.0651989 0.0648634 0.064864 0.065534 0.0655346 0.0651989 0.0651995 0.0655346 0.065535 0.0651995 0.0651998 0.0651989 0.0651995 0.064864 0.0648643 0.0651995 0.0651998 0.0648643 0.0648646 0.064855 0.0648578 0.0645247 0.064526 0.0648578 0.0648598 0.064526 0.064527 0.0645247 0.064526 0.0641946 0.0641943 0.064526 0.064527 0.0641943 0.0641942 0.0648598 0.0648614 0.064527 0.0645277 0.0648614 0.0648626 0.0645277 0.0645283 0.064527 0.0645277 0.0641942 0.0641942 0.0645277 0.0645283 0.0641942 0.0641942 0.0641946 0.0641943 0.0638645 0.0638628 0.0641943 0.0641942 0.0638628 0.0638615 0.0638645 0.0638628 0.0635345 0.0635313 0.0638628 0.0638615 0.0635313 0.0635289 0.0641942 0.0641942 0.0638615 0.0638607 0.0641942 0.0641942 0.0638607 0.0638601 0.0638615 0.0638607 0.0635289 0.0635272 0.0638607 0.0638601 0.0635272 0.063526 0.0648626 0.0648634 0.0645283 0.0645287 0.0648634 0.064864 0.0645287 0.0645291 0.0645283 0.0645287 0.0641942 0.0641942 0.0645287 0.0645291 0.0641942 0.0641942 0.064864 0.0648643 0.0645291 0.0645293 0.0648643 0.0648646 0.0645293 0.0645294 0.0645291 0.0645293 0.0641942 0.0641943 0.0645293 0.0645294 0.0641943 0.0641943 0.0641942 0.0641942 0.0638601 0.0638597 0.0641942 0.0641942 0.0638597 0.0638594 0.0638601 0.0638597 0.063526 0.0635252 0.0638597 0.0638594 0.0635252 0.0635247 0.0641942 0.0641943 0.0638594 0.0638593 0.0641943 0.0641943 0.0638593 