# vtk DataFile Version 3.0
#This file was generated by the deal.II library on 2022/1/6 at 22:46:42
ASCII
DATASET UNSTRUCTURED_GRID

POINTS 16384 double
0 0 0
0.1875 0 0
0 0.046875 0
0.1875 0.046875 0
0.1875 0 0
0.375 0 0
0.1875 0.046875 0
0.375 0.046875 0
0 0.046875 0
0.1875 0.046875 0
0 0.09375 0
0.1875 0.09375 0
0.1875 0.046875 0
0.375 0.046875 0
0.1875 0.09375 0
0.375 0.09375 0
0.375 0 0
0.5625 0 0
0.375 0.046875 0
0.5625 0.046875 0
0.5625 0 0
0.75 0 0
0.5625 0.046875 0
0.75 0.046875 0
0.375 0.046875 0
0.5625 0.046875 0
0.375 0.09375 0
0.5625 0.09375 0
0.5625 0.046875 0
0.75 0.046875 0
0.5625 0.09375 0
0.75 0.09375 0
0 0.09375 0
0.1875 0.09375 0
0 0.140625 0
0.1875 0.140625 0
0.1875 0.09375 0
0.375 0.09375 0
0.1875 0.140625 0
0.375 0.140625 0
0 0.140625 0
0.1875 0.140625 0
0 0.1875 0
0.1875 0.1875 0
0.1875 0.140625 0
0.375 0.140625 0
0.1875 0.1875 0
0.375 0.1875 0
0.375 0.09375 0
0.5625 0.09375 0
0.375 0.140625 0
0.5625 0.140625 0
0.5625 0.09375 0
0.75 0.09375 0
0.5625 0.140625 0
0.75 0.140625 0
0.375 0.140625 0
0.5625 0.140625 0
0.375 0.1875 0
0.5625 0.1875 0
0.5625 0.140625 0
0.75 0.140625 0
0.5625 0.1875 0
0.75 0.1875 0
0.75 0 0
0.9375 0 0
0.75 0.046875 0
0.9375 0.046875 0
0.9375 0 0
1.125 0 0
0.9375 0.046875 0
1.125 0.046875 0
0.75 0.046875 0
0.9375 0.046875 0
0.75 0.09375 0
0.9375 0.09375 0
0.9375 0.046875 0
1.125 0.046875 0
0.9375 0.09375 0
1.125 0.09375 0
1.125 0 0
1.3125 0 0
1.125 0.046875 0
1.3125 0.046875 0
1.3125 0 0
1.5 0 0
1.3125 0.046875 0
1.5 0.046875 0
1.125 0.046875 0
1.3125 0.046875 0
1.125 0.09375 0
1.3125 0.09375 0
1.3125 0.046875 0
1.5 0.046875 0
1.3125 0.09375 0
1.5 0.09375 0
0.75 0.09375 0
0.9375 0.09375 0
0.75 0.140625 0
0.9375 0.140625 0
0.9375 0.09375 0
1.125 0.09375 0
0.9375 0.140625 0
1.125 0.140625 0
0.75 0.140625 0
0.9375 0.140625 0
0.75 0.1875 0
0.9375 0.1875 0
0.9375 0.140625 0
1.125 0.140625 0
0.9375 0.1875 0
1.125 0.1875 0
1.125 0.09375 0
1.3125 0.09375 0
1.125 0.140625 0
1.3125 0.140625 0
1.3125 0.09375 0
1.5 0.09375 0
1.3125 0.140625 0
1.5 0.140625 0
1.125 0.140625 0
1.3125 0.140625 0
1.125 0.1875 0
1.3125 0.1875 0
1.3125 0.140625 0
1.5 0.140625 0
1.3125 0.1875 0
1.5 0.1875 0
0 0.1875 0
0.1875 0.1875 0
0 0.234375 0
0.1875 0.234375 0
0.1875 0.1875 0
0.375 0.1875 0
0.1875 0.234375 0
0.375 0.234375 0
0 0.234375 0
0.1875 0.234375 0
0 0.28125 0
0.1875 0.28125 0
0.1875 0.234375 0
0.375 0.234375 0
0.1875 0.28125 0
0.375 0.28125 0
0.375 0.1875 0
0.5625 0.1875 0
0.375 0.234375 0
0.5625 0.234375 0
0.5625 0.1875 0
0.75 0.1875 0
0.5625 0.234375 0
0.75 0.234375 0
0.375 0.234375 0
0.5625 0.234375 0
0.375 0.28125 0
0.5625 0.28125 0
0.5625 0.234375 0
0.75 0.234375 0
0.5625 0.28125 0
0.75 0.28125 0
0 0.28125 0
0.1875 0.28125 0
0 0.328125 0
0.1875 0.328125 0
0.1875 0.28125 0
0.375 0.28125 0
0.1875 0.328125 0
0.375 0.328125 0
0 0.328125 0
0.1875 0.328125 0
0 0.375 0
0.1875 0.375 0
0.1875 0.328125 0
0.375 0.328125 0
0.1875 0.375 0
0.375 0.375 0
0.375 0.28125 0
0.5625 0.28125 0
0.375 0.328125 0
0.5625 0.328125 0
0.5625 0.28125 0
0.75 0.28125 0
0.5625 0.328125 0
0.75 0.328125 0
0.375 0.328125 0
0.5625 0.328125 0
0.375 0.375 0
0.5625 0.375 0
0.5625 0.328125 0
0.75 0.328125 0
0.5625 0.375 0
0.75 0.375 0
0.75 0.1875 0
0.9375 0.1875 0
0.75 0.234375 0
0.9375 0.234375 0
0.9375 0.1875 0
1.125 0.1875 0
0.9375 0.234375 0
1.125 0.234375 0
0.75 0.234375 0
0.9375 0.234375 0
0.75 0.28125 0
0.9375 0.28125 0
0.9375 0.234375 0
1.125 0.234375 0
0.9375 0.28125 0
1.125 0.28125 0
1.125 0.1875 0
1.3125 0.1875 0
1.125 0.234375 0
1.3125 0.234375 0
1.3125 0.1875 0
1.5 0.1875 0
1.3125 0.234375 0
1.5 0.234375 0
1.125 0.234375 0
1.3125 0.234375 0
1.125 0.28125 0
1.3125 0.28125 0
1.3125 0.234375 0
1.5 0.234375 0
1.3125 0.28125 0
1.5 0.28125 0
0.75 0.28125 0
0.9375 0.28125 0
0.75 0.328125 0
0.9375 0.328125 0
0.9375 0.28125 0
1.125 0.28125 0
0.9375 0.328125 0
1.125 0.328125 0
0.75 0.328125 0
0.9375 0.328125 0
0.75 0.375 0
0.9375 0.375 0
0.9375 0.328125 0
1.125 0.328125 0
0.9375 0.375 0
1.125 0.375 0
1.125 0.28125 0
1.3125 0.28125 0
1.125 0.328125 0
1.3125 0.328125 0
1.3125 0.28125 0
1.5 0.28125 0
1.3125 0.328125 0
1.5 0.328125 0
1.125 0.328125 0
1.3125 0.328125 0
1.125 0.375 0
1.3125 0.375 0
1.3125 0.328125 0
1.5 0.328125 0
1.3125 0.375 0
1.5 0.375 0
1.5 0 0
1.6875 0 0
1.5 0.046875 0
1.6875 0.046875 0
1.6875 0 0
1.875 0 0
1.6875 0.046875 0
1.875 0.046875 0
1.5 0.046875 0
1.6875 0.046875 0
1.5 0.09375 0
1.6875 0.09375 0
1.6875 0.046875 0
1.875 0.046875 0
1.6875 0.09375 0
1.875 0.09375 0
1.875 0 0
2.0625 0 0
1.875 0.046875 0
2.0625 0.046875 0
2.0625 0 0
2.25 0 0
2.0625 0.046875 0
2.25 0.046875 0
1.875 0.046875 0
2.0625 0.046875 0
1.875 0.09375 0
2.0625 0.09375 0
2.0625 0.046875 0
2.25 0.046875 0
2.0625 0.09375 0
2.25 0.09375 0
1.5 0.09375 0
1.6875 0.09375 0
1.5 0.140625 0
1.6875 0.140625 0
1.6875 0.09375 0
1.875 0.09375 0
1.6875 0.140625 0
1.875 0.140625 0
1.5 0.140625 0
1.6875 0.140625 0
1.5 0.1875 0
1.6875 0.1875 0
1.6875 0.140625 0
1.875 0.140625 0
1.6875 0.1875 0
1.875 0.1875 0
1.875 0.09375 0
2.0625 0.09375 0
1.875 0.140625 0
2.0625 0.140625 0
2.0625 0.09375 0
2.25 0.09375 0
2.0625 0.140625 0
2.25 0.140625 0
1.875 0.140625 0
2.0625 0.140625 0
1.875 0.1875 0
2.0625 0.1875 0
2.0625 0.140625 0
2.25 0.140625 0
2.0625 0.1875 0
2.25 0.1875 0
2.25 0 0
2.4375 0 0
2.25 0.046875 0
2.4375 0.046875 0
2.4375 0 0
2.625 0 0
2.4375 0.046875 0
2.625 0.046875 0
2.25 0.046875 0
2.4375 0.046875 0
2.25 0.09375 0
2.4375 0.09375 0
2.4375 0.046875 0
2.625 0.046875 0
2.4375 0.09375 0
2.625 0.09375 0
2.625 0 0
2.8125 0 0
2.625 0.046875 0
2.8125 0.046875 0
2.8125 0 0
3 0 0
2.8125 0.046875 0
3 0.046875 0
2.625 0.046875 0
2.8125 0.046875 0
2.625 0.09375 0
2.8125 0.09375 0
2.8125 0.046875 0
3 0.046875 0
2.8125 0.09375 0
3 0.09375 0
2.25 0.09375 0
2.4375 0.09375 0
2.25 0.140625 0
2.4375 0.140625 0
2.4375 0.09375 0
2.625 0.09375 0
2.4375 0.140625 0
2.625 0.140625 0
2.25 0.140625 0
2.4375 0.140625 0
2.25 0.1875 0
2.4375 0.1875 0
2.4375 0.140625 0
2.625 0.140625 0
2.4375 0.1875 0
2.625 0.1875 0
2.625 0.09375 0
2.8125 0.09375 0
2.625 0.140625 0
2.8125 0.140625 0
2.8125 0.09375 0
3 0.09375 0
2.8125 0.140625 0
3 0.140625 0
2.625 0.140625 0
2.8125 0.140625 0
2.625 0.1875 0
2.8125 0.1875 0
2.8125 0.140625 0
3 0.140625 0
2.8125 0.1875 0
3 0.1875 0
1.5 0.1875 0
1.6875 0.1875 0
1.5 0.234375 0
1.6875 0.234375 0
1.6875 0.1875 0
1.875 0.1875 0
1.6875 0.234375 0
1.875 0.234375 0
1.5 0.234375 0
1.6875 0.234375 0
1.5 0.28125 0
1.6875 0.28125 0
1.6875 0.234375 0
1.875 0.234375 0
1.6875 0.28125 0
1.875 0.28125 0
1.875 0.1875 0
2.0625 0.1875 0
1.875 0.234375 0
2.0625 0.234375 0
2.0625 0.1875 0
2.25 0.1875 0
2.0625 0.234375 0
2.25 0.234375 0
1.875 0.234375 0
2.0625 0.234375 0
1.875 0.28125 0
2.0625 0.28125 0
2.0625 0.234375 0
2.25 0.234375 0
2.0625 0.28125 0
2.25 0.28125 0
1.5 0.28125 0
1.6875 0.28125 0
1.5 0.328125 0
1.6875 0.328125 0
1.6875 0.28125 0
1.875 0.28125 0
1.6875 0.328125 0
1.875 0.328125 0
1.5 0.328125 0
1.6875 0.328125 0
1.5 0.375 0
1.6875 0.375 0
1.6875 0.328125 0
1.875 0.328125 0
1.6875 0.375 0
1.875 0.375 0
1.875 0.28125 0
2.0625 0.28125 0
1.875 0.328125 0
2.0625 0.328125 0
2.0625 0.28125 0
2.25 0.28125 0
2.0625 0.328125 0
2.25 0.328125 0
1.875 0.328125 0
2.0625 0.328125 0
1.875 0.375 0
2.0625 0.375 0
2.0625 0.328125 0
2.25 0.328125 0
2.0625 0.375 0
2.25 0.375 0
2.25 0.1875 0
2.4375 0.1875 0
2.25 0.234375 0
2.4375 0.234375 0
2.4375 0.1875 0
2.625 0.1875 0
2.4375 0.234375 0
2.625 0.234375 0
2.25 0.234375 0
2.4375 0.234375 0
2.25 0.28125 0
2.4375 0.28125 0
2.4375 0.234375 0
2.625 0.234375 0
2.4375 0.28125 0
2.625 0.28125 0
2.625 0.1875 0
2.8125 0.1875 0
2.625 0.234375 0
2.8125 0.234375 0
2.8125 0.1875 0
3 0.1875 0
2.8125 0.234375 0
3 0.234375 0
2.625 0.234375 0
2.8125 0.234375 0
2.625 0.28125 0
2.8125 0.28125 0
2.8125 0.234375 0
3 0.234375 0
2.8125 0.28125 0
3 0.28125 0
2.25 0.28125 0
2.4375 0.28125 0
2.25 0.328125 0
2.4375 0.328125 0
2.4375 0.28125 0
2.625 0.28125 0
2.4375 0.328125 0
2.625 0.328125 0
2.25 0.328125 0
2.4375 0.328125 0
2.25 0.375 0
2.4375 0.375 0
2.4375 0.328125 0
2.625 0.328125 0
2.4375 0.375 0
2.625 0.375 0
2.625 0.28125 0
2.8125 0.28125 0
2.625 0.328125 0
2.8125 0.328125 0
2.8125 0.28125 0
3 0.28125 0
2.8125 0.328125 0
3 0.328125 0
2.625 0.328125 0
2.8125 0.328125 0
2.625 0.375 0
2.8125 0.375 0
2.8125 0.328125 0
3 0.328125 0
2.8125 0.375 0
3 0.375 0
0 0.375 0
0.1875 0.375 0
0 0.421875 0
0.1875 0.421875 0
0.1875 0.375 0
0.375 0.375 0
0.1875 0.421875 0
0.375 0.421875 0
0 0.421875 0
0.1875 0.421875 0
0 0.46875 0
0.1875 0.46875 0
0.1875 0.421875 0
0.375 0.421875 0
0.1875 0.46875 0
0.375 0.46875 0
0.375 0.375 0
0.5625 0.375 0
0.375 0.421875 0
0.5625 0.421875 0
0.5625 0.375 0
0.75 0.375 0
0.5625 0.421875 0
0.75 0.421875 0
0.375 0.421875 0
0.5625 0.421875 0
0.375 0.46875 0
0.5625 0.46875 0
0.5625 0.421875 0
0.75 0.421875 0
0.5625 0.46875 0
0.75 0.46875 0
0 0.46875 0
0.1875 0.46875 0
0 0.515625 0
0.1875 0.515625 0
0.1875 0.46875 0
0.375 0.46875 0
0.1875 0.515625 0
0.375 0.515625 0
0 0.515625 0
0.1875 0.515625 0
0 0.5625 0
0.1875 0.5625 0
0.1875 0.515625 0
0.375 0.515625 0
0.1875 0.5625 0
0.375 0.5625 0
0.375 0.46875 0
0.5625 0.46875 0
0.375 0.515625 0
0.5625 0.515625 0
0.5625 0.46875 0
0.75 0.46875 0
0.5625 0.515625 0
0.75 0.515625 0
0.375 0.515625 0
0.5625 0.515625 0
0.375 0.5625 0
0.5625 0.5625 0
0.5625 0.515625 0
0.75 0.515625 0
0.5625 0.5625 0
0.75 0.5625 0
0.75 0.375 0
0.9375 0.375 0
0.75 0.421875 0
0.9375 0.421875 0
0.9375 0.375 0
1.125 0.375 0
0.9375 0.421875 0
1.125 0.421875 0
0.75 0.421875 0
0.9375 0.421875 0
0.75 0.46875 0
0.9375 0.46875 0
0.9375 0.421875 0
1.125 0.421875 0
0.9375 0.46875 0
1.125 0.46875 0
1.125 0.375 0
1.3125 0.375 0
1.125 0.421875 0
1.3125 0.421875 0
1.3125 0.375 0
1.5 0.375 0
1.3125 0.421875 0
1.5 0.421875 0
1.125 0.421875 0
1.3125 0.421875 0
1.125 0.46875 0
1.3125 0.46875 0
1.3125 0.421875 0
1.5 0.421875 0
1.3125 0.46875 0
1.5 0.46875 0
0.75 0.46875 0
0.9375 0.46875 0
0.75 0.515625 0
0.9375 0.515625 0
0.9375 0.46875 0
1.125 0.46875 0
0.9375 0.515625 0
1.125 0.515625 0
0.75 0.515625 0
0.9375 0.515625 0
[...]
POINT_DATA 16384
SCALARS x_displacement double 1
LOOKUP_TABLE default
0 0.0326116 0 0.0292833 0.0326116 0.057307 0.0292833 0.0558611 0 0.0292833 0 0.0269928 0.0292833 0.0558611 0.0269928 0.0532892 0.057307 0.0722211 0.0558611 0.0711388 0.0722211 0.0771723 0.0711388 0.0765631 0.0558611 0.0711388 0.0532892 0.0693423 0.0711388 0.0765631 0.0693423 0.0754923 0 0.0269928 0 0.025096 0.0269928 0.0532892 0.025096 0.0498906 0 0.025096 0 0.0234941 0.025096 0.0498906 0.0234941 0.046407 0.0532892 0.0693423 0.0498906 0.0667344 0.0693423 0.0754923 0.0667344 0.0739988 0.0498906 0.0667344 0.046407 0.0631688 0.0667344 0.0739988 0.0631688 0.072216 0.0771723 0.0815289 0.0765631 0.0813528 0.0815289 0.0862852 0.0813528 0.0864153 0.0765631 0.0813528 0.0754923 0.0809243 0.0813528 0.0864153 0.0809243 0.0863533 0.0862852 0.0910112 0.0864153 0.0912476 0.0910112 0.0953752 0.0912476 0.0956393 0.0864153 0.0912476 0.0863533 0.0913505 0.0912476 0.0956393 0.0913505 0.0958043 0.0754923 0.0809243 0.0739988 0.0802848 0.0809243 0.0863533 0.0802848 0.0861279 0.0739988 0.0802848 0.072216 0.079482 0.0802848 0.0861279 0.079482 0.0857613 0.0863533 0.0913505 0.0861279 0.0913299 0.0913505 0.0958043 0.0913299 0.0958773 0.0861279 0.0913299 0.0857613 0.0912002 0.0913299 0.0958773 0.0912002 0.0958652 0 0.0234941 0 0.0221332 0.0234941 0.046407 0.0221332 0.0431333 0 0.0221332 0 0.0209324 0.0221332 0.0431333 0.0209324 0.0405408 0.046407 0.0631688 0.0431333 0.0595275 0.0631688 0.072216 0.0595275 0.0703807 0.0431333 0.0595275 0.0405408 0.0566172 0.0595275 0.0703807 0.0566172 0.0685301 0 0.0209324 0 0.0199191 0.0209324 0.0405408 0.0199191 0.0384867 0 0.0199191 0 0.0190844 0.0199191 0.0384867 0.0190844 0.0368514 0.0405408 0.0566172 0.0384867 0.0542954 0.0566172 0.0685301 0.0542954 0.0667925 0.0384867 0.0542954 0.0368514 0.052402 0.0542954 0.0667925 0.052402 0.0652179 0.072216 0.079482 0.0703807 0.0785396 0.079482 0.0857613 0.0785396 0.0852819 0.0703807 0.0785396 0.0685301 0.0775158 0.0785396 0.0852819 0.0775158 0.0847115 0.0857613 0.0912002 0.0852819 0.0909745 0.0912002 0.0958652 0.0909745 0.0957761 0.0852819 0.0909745 0.0847115 0.0906675 0.0909745 0.0957761 0.0906675 0.0956183 0.0685301 0.0775158 0.0667925 0.0764446 0.0775158 0.0847115 0.0764446 0.0840749 0.0667925 0.0764446 0.0652179 0.0753683 0.0764446 0.0840749 0.0753683 0.0833919 0.0847115 0.0906675 0.0840749 0.0902926 0.0906675 0.0956183 0.0902926 0.0954004 0.0840749 0.0902926 0.0833919 0.0898636 0.0902926 0.0954004 0.0898636 0.0951307 0.0953752 0.0992599 0.0956393 0.0995077 0.0992599 0.102637 0.0995077 0.102843 0.0956393 0.0995077 0.0958043 0.0996812 0.0995077 0.102843 0.0996812 0.102993 0.102637 0.105522 0.102843 0.105671 0.105522 0.10795 0.105671 0.108036 0.102843 0.105671 0.102993 0.105779 0.105671 0.108036 0.105779 0.108094 0.0958043 0.0996812 0.0958773 0.0997845 0.0996812 0.102993 0.0997845 0.10309 0.0958773 0.0997845 0.0958652 0.0998221 0.0997845 0.10309 0.0998221 0.103137 0.102993 0.105779 0.10309 0.105848 0.105779 0.108094 0.105848 0.108123 0.10309 0.105848 0.103137 0.10588 0.105848 0.108123 0.10588 0.108124 0.10795 0.109968 0.108036 0.109991 0.109968 0.111627 0.109991 0.111589 0.108036 0.109991 0.108094 0.109994 0.109991 0.111589 0.109994 0.111539 0.111627 0.112977 0.111589 0.112883 0.112977 0.114065 0.112883 0.113922 0.111589 0.112883 0.111539 0.112783 0.112883 0.113922 0.112783 0.113777 0.108094 0.109994 0.108123 0.109978 0.109994 0.111539 0.109978 0.111476 0.108123 0.109978 0.108124 0.109942 0.109978 0.111476 0.109942 0.1114 0.111539 0.112783 0.111476 0.112675 0.112783 0.113777 0.112675 0.113627 0.111476 0.112675 0.1114 0.112559 0.112675 0.113627 0.112559 0.113474 0.0958652 0.0998221 0.0957761 0.0997987 0.0998221 0.103137 0.0997987 0.103136 0.0957761 0.0997987 0.0956183 0.0997195 0.0997987 0.103136 0.0997195 0.103091 0.103137 0.10588 0.103136 0.105875 0.10588 0.108124 0.105875 0.108099 0.103136 0.105875 0.103091 0.105835 0.105875 0.108099 0.105835 0.108047 0.0956183 0.0997195 0.0954004 0.0995897 0.0997195 0.103091 0.0995897 0.103004 0.0954004 0.0995897 0.0951307 0.0994147 0.0995897 0.103004 0.0994147 0.10288 0.103091 0.105835 0.103004 0.105763 0.105835 0.108047 0.105763 0.10797 0.103004 0.105763 0.10288 0.10566 0.105763 0.10797 0.10566 0.107869 0.108124 0.109942 0.108099 0.109887 0.109942 0.1114 0.109887 0.111311 0.108099 0.109887 0.108047 0.109812 0.109887 0.111311 0.109812 0.111208 0.1114 0.112559 0.111311 0.112435 0.112559 0.113474 0.112435 0.113316 0.111311 0.112435 0.111208 0.112301 0.112435 0.113316 0.112301 0.113152 0.108047 0.109812 0.10797 0.109719 0.109812 0.111208 0.109719 0.111091 0.10797 0.109719 0.107869 0.109607 0.109719 0.111091 0.109607 0.110961 0.111208 0.112301 0.111091 0.112158 0.112301 0.113152 0.112158 0.112982 0.111091 0.112158 0.110961 0.112006 0.112158 0.112982 0.112006 0.112805 0 0.0190844 0 0.0184052 0.0190844 0.0368514 0.0184052 0.0355409 0 0.0184052 0 0.0178548 0.0184052 0.0355409 0.0178548 0.0344833 0.0368514 0.052402 0.0355409 0.0508379 0.052402 0.0652179 0.0508379 0.0638119 0.0355409 0.0508379 0.0344833 0.0495345 0.0508379 0.0638119 0.0495345 0.0625647 0 0.0178548 0 0.0174086 0.0178548 0.0344833 0.0174086 0.033624 0 0.0174086 0 0.0170456 0.0174086 0.033624 0.0170456 0.0329206 0.0344833 0.0495345 0.033624 0.048441 0.0495345 0.0625647 0.048441 0.0614617 0.033624 0.048441 0.0329206 0.047518 0.048441 0.0614617 0.047518 0.0604873 0.0652179 0.0753683 0.0638119 0.07432 0.0753683 0.0833919 0.07432 0.0826815 0.0638119 0.07432 0.0625647 0.0733204 0.07432 0.0826815 0.0733204 0.0819609 0.0833919 0.0898636 0.0826815 0.0893927 0.0898636 0.0951307 0.0893927 0.0948174 0.0826815 0.0893927 0.0819609 0.0888914 0.0893927 0.0948174 0.0888914 0.0944684 0.0625647 0.0733204 0.0614617 0.0723807 0.0733204 0.0819609 0.0723807 0.0812444 0.0614617 0.0723807 0.0604873 0.0715058 0.0723807 0.0812444 0.0715058 0.0805426 0.0819609 0.0888914 0.0812444 0.0883699 0.0888914 0.0944684 0.0883699 0.0940909 0.0812444 0.0883699 0.0805426 0.0878372 0.0883699 0.0940909 0.0878372 0.0936916 0 0.0170456 0 0.0167486 0.0170456 0.0329206 0.0167486 0.0323408 0 0.0167486 0 0.0165039 0.0167486 0.0323408 0.0165039 0.031859 0.0329206 0.047518 0.0323408 0.0467345 0.047518 0.0604873 0.0467345 0.0596262 0.0323408 0.0467345 0.031859 0.0460657 0.0467345 0.0596262 0.0460657 0.0588644 0 0.0165039 0 0.0163008 0.0165039 0.031859 0.0163008 0.0314556 0 0.0163008 0 0.0161307 0.0163008 0.0314556 0.0161307 0.031115 0.031859 0.0460657 0.0314556 0.0454917 0.0460657 0.0588644 0.0454917 0.0581891 0.0314556 0.0454917 0.031115 0.044996 0.0454917 0.0581891 0.044996 0.0575891 0.0604873 0.0715058 0.0596262 0.0706964 0.0715058 0.0805426 0.0706964 0.0798633 0.0596262 0.0706964 0.0588644 0.0699508 0.0706964 0.0798633 0.0699508 0.0792115 0.0805426 0.0878372 0.0798633 0.087301 0.0878372 0.0936916 0.087301 0.0932766 0.0798633 0.087301 0.0792115 0.0867677 0.087301 0.0932766 0.0867677 0.0928512 0.0588644 0.0699508 0.0581891 0.0692656 0.0699508 0.0792115 0.0692656 0.0785903 0.0581891 0.0692656 0.0575891 0.0686371 0.0692656 0.0785903 0.0686371 0.0780011 0.0792115 0.0867677 0.0785903 0.0862421 0.0867677 0.0928512 0.0862421 0.0924201 0.0785903 0.0862421 0.0780011 0.0857282 0.0862421 0.0924201 0.0857282 0.0919873 0.0951307 0.0994147 0.0948174 0.0991998 0.0994147 0.10288 0.0991998 0.102722 0.0948174 0.0991998 0.0944684 0.0989502 0.0991998 0.102722 0.0989502 0.102532 0.10288 0.10566 0.102722 0.105529 0.10566 0.107869 0.105529 0.107746 0.102722 0.105529 0.102532 0.105372 0.105529 0.107746 0.105372 0.107601 0.0944684 0.0989502 0.0940909 0.098671 0.0989502 0.102532 0.098671 0.102315 0.0940909 0.098671 0.0936916 0.0983669 0.098671 0.102315 0.0983669 0.102074 0.102532 0.105372 0.102315 0.10519 0.105372 0.107601 0.10519 0.107435 0.102315 0.10519 0.102074 0.104988 0.10519 0.107435 0.104988 0.107252 0.107869 0.109607 0.107746 0.109478 0.109607 0.110961 0.109478 0.110818 0.107746 0.109478 0.107601 0.109331 0.109478 0.110818 0.109331 0.110661 0.110961 0.112006 0.110818 0.111844 0.112006 0.112805 0.111844 0.112622 0.110818 0.111844 0.110661 0.111672 0.111844 0.112622 0.111672 0.112432 0.107601 0.109331 0.107435 0.109169 0.109331 0.110661 0.109169 0.110492 0.107435 0.109169 0.107252 0.108991 0.109169 0.110492 0.108991 0.110311 0.110661 0.111672 0.110492 0.11149 0.111672 0.112432 0.11149 0.112234 0.110492 0.11149 0.110311 0.111299 0.11149 0.112234 0.111299 0.11203 0.0936916 0.0983669 0.0932766 0.0980426 0.0983669 0.102074 0.0980426 0.101813 0.0932766 0.0980426 0.0928512 0.0977021 0.0980426 0.101813 0.0977021 0.101533 0.102074 0.104988 0.101813 0.104765 0.104988 0.107252 0.104765 0.107051 0.101813 0.104765 0.101533 0.104525 0.104765 0.107051 0.104525 0.106835 0.0928512 0.0977021 0.0924201 0.0973491 0.0977021 0.101533 0.0973491 0.101238 0.0924201 0.0973491 0.0919873 0.0969872 0.0973491 0.101238 0.0969872 0.100931 0.101533 0.104525 0.101238 0.10427 0.104525 0.106835 0.10427 0.106604 0.101238 0.10427 0.100931 0.104002 0.10427 0.106604 0.104002 0.10636 0.107252 0.108991 0.107051 0.108799 0.108991 0.110311 0.108799 0.110117 0.107051 0.108799 0.106835 0.108593 0.108799 0.110117 0.108593 0.109913 0.110311 0.111299 0.110117 0.111098 0.111299 0.11203 0.111098 0.111818 0.110117 0.111098 0.109913 0.110888 0.111098 0.111818 0.110888 0.111599 0.106835 0.108593 0.106604 0.108374 0.108593 0.109913 0.108374 0.109697 0.106604 0.108374 0.10636 0.108144 0.108374 0.109697 0.108144 0.109471 0.109913 0.110888 0.109697 0.11067 0.110888 0.111599 0.11067 0.111372 0.109697 0.11067 0.109471 0.110442 0.11067 0.111372 0.110442 0.111139 0.114065 0.114935 0.113922 0.11475 0.114935 0.115624 0.11475 0.115403 0.113922 0.11475 0.113777 0.114564 0.11475 0.115403 0.114564 0.115185 0.115624 0.116167 0.115403 0.115917 0.116167 0.11659 0.115917 0.116317 0.115403 0.115917 0.115185 0.11567 0.115917 0.116317 0.11567 0.116047 0.113777 0.114564 0.113627 0.114378 0.114564 0.115185 0.114378 0.114967 0.113627 0.114378 0.113474 0.114191 0.114378 0.114967 0.114191 0.114749 0.115185 0.11567 0.114967 0.115425 0.11567 0.116047 0.115425 0.11578 0.114967 0.115425 0.114749 0.115182 0.115425 0.11578 0.115182 0.115516 0.11659 0.116918 0.116317 0.116626 0.116918 0.11717 0.116626 0.116865 0.116317 0.116626 0.116047 0.116339 0.116626 0.116865 0.116339 0.116563 0.11717 0.117362 0.116865 0.117046 0.117362 0.117508 0.117046 0.117184 0.116865 0.117046 0.116563 0.116734 0.117046 0.117184 0.116734 0.116864 0.116047 0.116339 0.11578 0.116054 0.116339 0.116563 0.116054 0.116264 0.11578 0.116054 0.115516 0.115772 0.116054 0.116264 0.115772 0.115969 0.116563 0.116734 0.116264 0.116425 0.116734 0.116864 0.116425 0.116547 0.116264 0.116425 0.115969 0.116118 0.116425 0.116547 0.116118 0.116231 0.113474 0.114191 0.113316 0.114001 0.114191 0.114749 0.114001 0.114532 0.113316 0.114001 0.113152 0.113808 0.114001 0.114532 0.113808 0.114313 0.114749 0.115182 0.114532 0.11494 0.115182 0.115516 0.11494 0.115253 0.114532 0.11494 0.114313 0.114698 0.11494 0.115253 0.114698 0.114992 0.113152 0.113808 0.112982 0.113612 0.113808 0.114313 0.113612 0.114092 0.112982 0.113612 0.112805 0.113412 0.113612 0.114092 0.113412 0.11387 0.114313 0.114698 0.114092 0.114456 0.114698 0.114992 0.114456 0.114731 0.114092 0.114456 0.11387 0.114213 0.114456 0.114731 0.114213 0.11447 0.115516 0.115772 0.115253 0.115493 0.115772 0.115969 0.115493 0.115675 0.115253 0.115493 0.114992 0.115214 0.115493 0.115675 0.115214 0.115383 0.115969 0.116118 0.115675 0.115813 0.116118 0.116231 0.115813 0.115918 0.115675 0.115813 0.115383 0.115511 0.115813 0.115918 0.115511 0.115607 0.114992 0.115214 0.114731 0.114937 0.115214 0.115383 0.114937 0.115093 0.114731 0.114937 0.11447 0.114661 0.114937 0.115093 0.114661 0.114803 0.115383 0.115511 0.115093 0.115209 0.115511 0.115607 0.115209 0.115297 0.115093 0.115209 0.114803 0.114909 0.115209 0.115297 0.114909 0.114988 0.117508 0.117617 0.117184 0.117288 0.117617 0.117697 0.117288 0.117365 0.117184 0.117288 0.116864 0.116962 0.117288 0.117365 0.116962 0.117035 0.117697 0.117757 0.117365 0.117422 0.117757 0.117799 0.117422 0.117463 0.117365 0.117422 0.117035 0.117089 0.117422 0.117463 0.117089 0.117129 0.116864 0.116962 0.116547 0.116638 0.116962 0.117035 0.116638 0.116707 0.116547 0.116638 0.116231 0.116317 0.116638 0.116707 0.116317 0.116381 0.117035 0.117089 0.116707 0.116758 0.117089 0.117129 0.116758 0.116796 0.116707 0.116758 0.116381 0.116428 0.116758 0.116796 0.116428 0.116463 0.117799 0.11783 0.117463 0.117493 0.11783 0.117851 0.117493 0.117514 0.117463 0.117493 0.117129 0.117157 0.117493 0.117514 0.117157 0.117178 0.117851 0.117865 0.117514 0.117528 0.117865 0.117875 0.117528 0.117538 0.117514 0.117528 0.117178 0.117192 0.117528 0.117538 0.117192 0.117201 0.117129 0.117157 0.116796 0.116823 0.117157 0.117178 0.116823 0.116842 0.116796 0.116823 0.116463 0.116489 0.116823 0.116842 0.116489 0.116507 0.117178 0.117192 0.116842 0.116856 0.117192 0.117201 0.116856 0.116865 0.116842 0.116856 0.116507 0.11652 0.116856 0.116865 0.11652 0.116529 0.116231 0.116317 0.115918 0.115997 0.116317 0.116381 0.115997 0.116056 0.115918 0.115997 0.115607 0.115679 0.115997 0.116056 0.115679 0.115733 0.116381 0.116428 0.116056 0.1161 0.116428 0.116463 0.1161 0.116132 0.116056 0.1161 0.115733 0.115773 0.1161 0.116132 0.115773 0.115802 0.115607 0.115679 0.115297 0.115362 0.115679 0.115733 0.115362 0.11541 0.115297 0.115362 0.114988 0.115046 0.115362 0.11541 0.115046 0.115089 0.115733 0.115773 0.11541 0.115447 0.115773 0.115802 0.115447 0.115473 0.11541 0.115447 0.115089 0.115121 0.115447 0.115473 0.115121 0.115145 0.116463 0.116489 0.116132 0.116156 0.116489 0.116507 0.116156 0.116173 0.116132 0.116156 0.115802 0.115824 0.116156 0.116173 0.115824 0.11584 0.116507 0.11652 0.116173 0.116186 0.11652 0.116529 0.116186 0.116194 0.116173 0.116186 0.11584 0.115851 0.116186 0.116194 0.115851 0.115859 0.115802 0.115824 0.115473 0.115493 0.115824 0.11584 0.115493 0.115507 0.115473 0.115493 0.115145 0.115162 0.115493 0.115507 0.115162 0.115175 0.11584 0.115851 0.115507 0.115517 0.115851 0.115859 0.115517 0.115524 0.115507 0.115517 0.115175 0.115184 0.115517 0.115524 0.115184 0.11519 0.112805 0.113412 0.112622 0.113207 0.113412 0.11387 0.113207 0.113644 0.112622 0.113207 0.112432 0.112998 0.113207 0.113644 0.112998 0.113416 0.11387 0.114213 0.113644 0.113969 0.114213 0.11447 0.113969 0.114208 0.113644 0.113969 0.113416 0.113722 0.113969 0.114208 0.113722 0.113946 0.112432 0.112998 0.112234 0.112783 0.112998 0.113416 0.112783 0.113184 0.112234 0.112783 0.11203 0.112563 0.112783 0.113184 0.112563 0.112949 0.113416 0.113722 0.113184 0.113474 0.113722 0.113946 0.113474 0.113683 0.113184 0.113474 0.112949 0.113223 0.113474 0.113683 0.113223 0.113418 0.11447 0.114661 0.114208 0.114385 0.114661 0.114803 0.114385 0.114514 0.114208 0.114385 0.113946 0.114108 0.114385 0.114514 0.114108 0.114226 0.114803 0.114909 0.114514 0.11461 0.114909 0.114988 0.11461 0.11468 0.114514 0.11461 0.114226 0.114311 0.11461 0.11468 0.114311 0.114372 0.113946 0.114108 0.113683 0.113831 0.114108 0.114226 0.113831 0.113937 0.113683 0.113831 0.113418 0.113554 0.113831 0.113937 0.113554 0.113648 0.114226 0.114311 0.113937 0.114012 0.114311 0.114372 0.114012 0.114066 0.113937 0.114012 0.113648 0.113714 0.114012 0.114066 0.113714 0.113759 0.11203 0.112563 0.111818 0.112338 0.112563 0.112949 0.112338 0.112709 0.111818 0.112338 0.111599 0.112107 0.112338 0.112709 0.112107 0.112465 0.112949 0.113223 0.112709 0.11297 0.113223 0.113418 0.11297 0.113151 0.112709 0.11297 0.112465 0.112713 0.11297 0.113151 0.112713 0.112882 0.111599 0.112107 0.111372 0.111871 0.112107 0.112465 0.111871 0.112217 0.111372 0.111871 0.111139 0.111628 0.111871 0.112217 0.111628 0.111965 0.112465 0.112713 0.112217 0.112453 0.112713 0.112882 0.112453 0.112611 0.112217 0.112453 0.111965 0.11219 0.112453 0.112611 0.11219 0.112336 0.113418 0.113554 0.113151 0.113275 0.113554 0.113648 0.113275 0.113359 0.113151 0.113275 0.112882 0.112994 0.113275 0.113359 0.112994 0.113068 0.113648 0.113714 0.113359 0.113415 0.113714 0.113759 0.113415 0.113452 0.113359 0.113415 0.113068 0.113115 0.113415 0.113452 0.113115 0.113145 0.112882 0.112994 0.112611 0.112712 0.112994 0.113068 0.112712 0.112776 0.112611 0.112712 0.112336 0.112428 0.112712 0.112776 0.112428 0.112483 0.113068 0.113115 0.112776 0.112815 0.113115 0.113145 0.112815 0.112838 0.112776 0.112815 0.112483 0.112514 0.112815 0.112838 0.112514 0.11253 0.114988 0.115046 0.11468 0.114731 0.115046 0.115089 0.114731 0.114769 0.11468 0.114731 0.114372 0.114417 0.114731 0.114769 0.114417 0.114449 0.115089 0.115121 0.114769 0.114797 0.115121 0.115145 0.114797 0.114817 0.114769 0.114797 0.114449 0.114473 0.114797 0.114817 0.114473 0.11449 0.114372 0.114417 0.114066 0.114103 0.114417 0.114449 0.114103 0.11413 0.114066 0.114103 0.113759 0.11379 0.114103 0.11413 0.11379 0.113812 0.114449 0.114473 0.11413 0.11415 0.114473 0.11449 0.11415 0.114163 0.11413 0.11415 0.113812 0.113827 0.11415 0.114163 0.113827 0.113837 0.115145 0.115162 0.114817 0.114832 0.115162 0.115175 0.114832 0.114843 0.114817 0.114832 0.11449 0.114502 0.114832 0.114843 0.114502 0.114511 0.115175 0.115184 0.114843 0.114851 0.115184 0.11519 0.114851 0.114856 0.114843 0.114851 0.114511 0.114518 0.114851 0.114856 0.114518 0.114522 0.11449 0.114502 0.114163 0.114173 0.114502 0.114511 0.114173 0.11418 0.114163 0.114173 0.113837 0.113844 0.114173 0.11418 0.113844 0.113849 0.114511 0.114518 0.11418 0.114185 0.114518 0.114522 0.114185 0.114189 0.11418 0.114185 0.113849 0.113853 0.114185 0.114189 0.113853 0.113856 0.113759 0.11379 0.113452 0.113477 0.11379 0.113812 0.113477 0.113493 0.113452 0.113477 0.113145 0.113164 0.113477 0.113493 0.113164 0.113175 0.113812 0.113827 0.113493 0.113504 0.113827 0.113837 0.113504 0.113511 0.113493 0.113504 0.113175 0.113181 0.113504 0.113511 0.113181 0.113185 0.113145 0.113164 0.112838 0.11285 0.113164 0.113175 0.11285 0.112856 0.112838 0.11285 0.11253 0.112536 0.11285 0.112856 0.112536 0.112537 0.113175 0.113181 0.112856 0.112859 0.113181 0.113185 0.112859 0.112859 0.112856 0.112859 0.112537 0.112536 0.112859 0.112859 0.112536 0.112533 0.113837 0.113844 0.113511 0.113516 0.113844 0.113849 0.113516 0.113519 0.113511 0.113516 0.113185 0.113187 0.113516 0.113519 0.113187 0.113188 0.113849 0.113853 0.113519 0.113521 0.113853 0.113856 0.113521 0.113522 0.113519 0.113521 0.113188 0.113189 0.113521 0.113522 0.113189 0.113189 0.113185 0.113187 0.112859 0.112859 0.113187 0.113188 0.112859 0.112858 0.112859 0.112859 0.112533 0.11253 0.112859 0.112858 0.11253 0.112528 0.113188 0.113189 0.112858 0.112857 0.113189 0.113189 0.112857 0.112857 0.112858 0.112857 0.112528 0.112526 0.112857 0.112857 0.112526 0.112524 0 0.0161307 0 0.0159869 0.0161307 0.031115 0.0159869 0.0308251 0 0.0159869 0 0.0158643 0.0159869 0.0308251 0.0158643 0.030576 0.031115 0.044996 0.0308251 0.0445655 0.044996 0.0575891 0.0445655 0.0570545 0.0308251 0.0445655 0.030576 0.0441894 0.0445655 0.0570545 0.0441894 0.0565766 0 0.0158643 0 0.0157587 0.0158643 0.030576 0.0157587 0.0303602 0 0.0157587 0 0.0156668 0.0157587 0.0303602 0.0156668 0.0301716 0.030576 0.0441894 0.0303602 0.0438586 0.0441894 0.0565766 0.0438586 0.056148 0.0303602 0.0438586 0.0301716 0.0435658 0.0438586 0.056148 0.0435658 0.055762 0.0575891 0.0686371 0.0570545 0.0680607 0.0686371 0.0780011 0.0680607 0.0774444 0.0570545 0.0680607 0.0565766 0.067532 0.0680607 0.0774444 0.067532 0.0769198 0.0780011 0.0857282 0.0774444 0.0852286 0.0857282 0.0919873 0.0852286 0.0915562 0.0774444 0.0852286 0.0769198 0.0847454 0.0852286 0.0915562 0.0847454 0.0911294 0.0565766 0.067532 0.056148 0.0670468 0.067532 0.0769198 0.0670468 0.0764263 0.056148 0.0670468 0.055762 0.0666009 0.0670468 0.0764263 0.0666009 0.0759626 0.0769198 0.0847454 0.0764263 0.0842798 0.0847454 0.0911294 0.0842798 0.0907091 0.0764263 0.0842798 0.0759626 0.0838325 0.0842798 0.0907091 0.0838325 0.090297 0 0.0156668 0 0.0155861 0.0156668 0.0301716 0.0155861 0.0300052 0 0.0155861 0 0.0155144 0.0155861 0.0300052 0.0155144 0.0298571 0.0301716 0.0435658 0.030