# vtk DataFile Version 3.0
#This file was generated by the deal.II library on 2022/1/6 at 22:33:58
ASCII
DATASET UNSTRUCTURED_GRID

POINTS 16384 double
0 0 0
0.1875 0 0
0 0.046875 0
0.1875 0.046875 0
0.1875 0 0
0.375 0 0
0.1875 0.046875 0
0.375 0.046875 0
0 0.046875 0
0.1875 0.046875 0
0 0.09375 0
0.1875 0.09375 0
0.1875 0.046875 0
0.375 0.046875 0
0.1875 0.09375 0
0.375 0.09375 0
0.375 0 0
0.5625 0 0
0.375 0.046875 0
0.5625 0.046875 0
0.5625 0 0
0.75 0 0
0.5625 0.046875 0
0.75 0.046875 0
0.375 0.046875 0
0.5625 0.046875 0
0.375 0.09375 0
0.5625 0.09375 0
0.5625 0.046875 0
0.75 0.046875 0
0.5625 0.09375 0
0.75 0.09375 0
0 0.09375 0
0.1875 0.09375 0
0 0.140625 0
0.1875 0.140625 0
0.1875 0.09375 0
0.375 0.09375 0
0.1875 0.140625 0
0.375 0.140625 0
0 0.140625 0
0.1875 0.140625 0
0 0.1875 0
0.1875 0.1875 0
0.1875 0.140625 0
0.375 0.140625 0
0.1875 0.1875 0
0.375 0.1875 0
0.375 0.09375 0
0.5625 0.09375 0
0.375 0.140625 0
0.5625 0.140625 0
0.5625 0.09375 0
0.75 0.09375 0
0.5625 0.140625 0
0.75 0.140625 0
0.375 0.140625 0
0.5625 0.140625 0
0.375 0.1875 0
0.5625 0.1875 0
0.5625 0.140625 0
0.75 0.140625 0
0.5625 0.1875 0
0.75 0.1875 0
0.75 0 0
0.9375 0 0
0.75 0.046875 0
0.9375 0.046875 0
0.9375 0 0
1.125 0 0
0.9375 0.046875 0
1.125 0.046875 0
0.75 0.046875 0
0.9375 0.046875 0
0.75 0.09375 0
0.9375 0.09375 0
0.9375 0.046875 0
1.125 0.046875 0
0.9375 0.09375 0
1.125 0.09375 0
1.125 0 0
1.3125 0 0
1.125 0.046875 0
1.3125 0.046875 0
1.3125 0 0
1.5 0 0
1.3125 0.046875 0
1.5 0.046875 0
1.125 0.046875 0
1.3125 0.046875 0
1.125 0.09375 0
1.3125 0.09375 0
1.3125 0.046875 0
1.5 0.046875 0
1.3125 0.09375 0
1.5 0.09375 0
0.75 0.09375 0
0.9375 0.09375 0
0.75 0.140625 0
0.9375 0.140625 0
0.9375 0.09375 0
1.125 0.09375 0
0.9375 0.140625 0
1.125 0.140625 0
0.75 0.140625 0
0.9375 0.140625 0
0.75 0.1875 0
0.9375 0.1875 0
0.9375 0.140625 0
1.125 0.140625 0
0.9375 0.1875 0
1.125 0.1875 0
1.125 0.09375 0
1.3125 0.09375 0
1.125 0.140625 0
1.3125 0.140625 0
1.3125 0.09375 0
1.5 0.09375 0
1.3125 0.140625 0
1.5 0.140625 0
1.125 0.140625 0
1.3125 0.140625 0
1.125 0.1875 0
1.3125 0.1875 0
1.3125 0.140625 0
1.5 0.140625 0
1.3125 0.1875 0
1.5 0.1875 0
0 0.1875 0
0.1875 0.1875 0
0 0.234375 0
0.1875 0.234375 0
0.1875 0.1875 0
0.375 0.1875 0
0.1875 0.234375 0
0.375 0.234375 0
0 0.234375 0
0.1875 0.234375 0
0 0.28125 0
0.1875 0.28125 0
0.1875 0.234375 0
0.375 0.234375 0
0.1875 0.28125 0
0.375 0.28125 0
0.375 0.1875 0
0.5625 0.1875 0
0.375 0.234375 0
0.5625 0.234375 0
0.5625 0.1875 0
0.75 0.1875 0
0.5625 0.234375 0
0.75 0.234375 0
0.375 0.234375 0
0.5625 0.234375 0
0.375 0.28125 0
0.5625 0.28125 0
0.5625 0.234375 0
0.75 0.234375 0
0.5625 0.28125 0
0.75 0.28125 0
0 0.28125 0
0.1875 0.28125 0
0 0.328125 0
0.1875 0.328125 0
0.1875 0.28125 0
0.375 0.28125 0
0.1875 0.328125 0
0.375 0.328125 0
0 0.328125 0
0.1875 0.328125 0
0 0.375 0
0.1875 0.375 0
0.1875 0.328125 0
0.375 0.328125 0
0.1875 0.375 0
0.375 0.375 0
0.375 0.28125 0
0.5625 0.28125 0
0.375 0.328125 0
0.5625 0.328125 0
0.5625 0.28125 0
0.75 0.28125 0
0.5625 0.328125 0
0.75 0.328125 0
0.375 0.328125 0
0.5625 0.328125 0
0.375 0.375 0
0.5625 0.375 0
0.5625 0.328125 0
0.75 0.328125 0
0.5625 0.375 0
0.75 0.375 0
0.75 0.1875 0
0.9375 0.1875 0
0.75 0.234375 0
0.9375 0.234375 0
0.9375 0.1875 0
1.125 0.1875 0
0.9375 0.234375 0
1.125 0.234375 0
0.75 0.234375 0
0.9375 0.234375 0
0.75 0.28125 0
0.9375 0.28125 0
0.9375 0.234375 0
1.125 0.234375 0
0.9375 0.28125 0
1.125 0.28125 0
1.125 0.1875 0
1.3125 0.1875 0
1.125 0.234375 0
1.3125 0.234375 0
1.3125 0.1875 0
1.5 0.1875 0
1.3125 0.234375 0
1.5 0.234375 0
1.125 0.234375 0
1.3125 0.234375 0
1.125 0.28125 0
1.3125 0.28125 0
1.3125 0.234375 0
1.5 0.234375 0
1.3125 0.28125 0
1.5 0.28125 0
0.75 0.28125 0
0.9375 0.28125 0
0.75 0.328125 0
0.9375 0.328125 0
0.9375 0.28125 0
1.125 0.28125 0
0.9375 0.328125 0
1.125 0.328125 0
0.75 0.328125 0
0.9375 0.328125 0
0.75 0.375 0
0.9375 0.375 0
0.9375 0.328125 0
1.125 0.328125 0
0.9375 0.375 0
1.125 0.375 0
1.125 0.28125 0
1.3125 0.28125 0
1.125 0.328125 0
1.3125 0.328125 0
1.3125 0.28125 0
1.5 0.28125 0
1.3125 0.328125 0
1.5 0.328125 0
1.125 0.328125 0
1.3125 0.328125 0
1.125 0.375 0
1.3125 0.375 0
1.3125 0.328125 0
1.5 0.328125 0
1.3125 0.375 0
1.5 0.375 0
1.5 0 0
1.6875 0 0
1.5 0.046875 0
1.6875 0.046875 0
1.6875 0 0
1.875 0 0
1.6875 0.046875 0
1.875 0.046875 0
1.5 0.046875 0
1.6875 0.046875 0
1.5 0.09375 0
1.6875 0.09375 0
1.6875 0.046875 0
1.875 0.046875 0
1.6875 0.09375 0
1.875 0.09375 0
1.875 0 0
2.0625 0 0
1.875 0.046875 0
2.0625 0.046875 0
2.0625 0 0
2.25 0 0
2.0625 0.046875 0
2.25 0.046875 0
1.875 0.046875 0
2.0625 0.046875 0
1.875 0.09375 0
2.0625 0.09375 0
2.0625 0.046875 0
2.25 0.046875 0
2.0625 0.09375 0
2.25 0.09375 0
1.5 0.09375 0
1.6875 0.09375 0
1.5 0.140625 0
1.6875 0.140625 0
1.6875 0.09375 0
1.875 0.09375 0
1.6875 0.140625 0
1.875 0.140625 0
1.5 0.140625 0
1.6875 0.140625 0
1.5 0.1875 0
1.6875 0.1875 0
1.6875 0.140625 0
1.875 0.140625 0
1.6875 0.1875 0
1.875 0.1875 0
1.875 0.09375 0
2.0625 0.09375 0
1.875 0.140625 0
2.0625 0.140625 0
2.0625 0.09375 0
2.25 0.09375 0
2.0625 0.140625 0
2.25 0.140625 0
1.875 0.140625 0
2.0625 0.140625 0
1.875 0.1875 0
2.0625 0.1875 0
2.0625 0.140625 0
2.25 0.140625 0
2.0625 0.1875 0
2.25 0.1875 0
2.25 0 0
2.4375 0 0
2.25 0.046875 0
2.4375 0.046875 0
2.4375 0 0
2.625 0 0
2.4375 0.046875 0
2.625 0.046875 0
2.25 0.046875 0
2.4375 0.046875 0
2.25 0.09375 0
2.4375 0.09375 0
2.4375 0.046875 0
2.625 0.046875 0
2.4375 0.09375 0
2.625 0.09375 0
2.625 0 0
2.8125 0 0
2.625 0.046875 0
2.8125 0.046875 0
2.8125 0 0
3 0 0
2.8125 0.046875 0
3 0.046875 0
2.625 0.046875 0
2.8125 0.046875 0
2.625 0.09375 0
2.8125 0.09375 0
2.8125 0.046875 0
3 0.046875 0
2.8125 0.09375 0
3 0.09375 0
2.25 0.09375 0
2.4375 0.09375 0
2.25 0.140625 0
2.4375 0.140625 0
2.4375 0.09375 0
2.625 0.09375 0
2.4375 0.140625 0
2.625 0.140625 0
2.25 0.140625 0
2.4375 0.140625 0
2.25 0.1875 0
2.4375 0.1875 0
2.4375 0.140625 0
2.625 0.140625 0
2.4375 0.1875 0
2.625 0.1875 0
2.625 0.09375 0
2.8125 0.09375 0
2.625 0.140625 0
2.8125 0.140625 0
2.8125 0.09375 0
3 0.09375 0
2.8125 0.140625 0
3 0.140625 0
2.625 0.140625 0
2.8125 0.140625 0
2.625 0.1875 0
2.8125 0.1875 0
2.8125 0.140625 0
3 0.140625 0
2.8125 0.1875 0
3 0.1875 0
1.5 0.1875 0
1.6875 0.1875 0
1.5 0.234375 0
1.6875 0.234375 0
1.6875 0.1875 0
1.875 0.1875 0
1.6875 0.234375 0
1.875 0.234375 0
1.5 0.234375 0
1.6875 0.234375 0
1.5 0.28125 0
1.6875 0.28125 0
1.6875 0.234375 0
1.875 0.234375 0
1.6875 0.28125 0
1.875 0.28125 0
1.875 0.1875 0
2.0625 0.1875 0
1.875 0.234375 0
2.0625 0.234375 0
2.0625 0.1875 0
2.25 0.1875 0
2.0625 0.234375 0
2.25 0.234375 0
1.875 0.234375 0
2.0625 0.234375 0
1.875 0.28125 0
2.0625 0.28125 0
2.0625 0.234375 0
2.25 0.234375 0
2.0625 0.28125 0
2.25 0.28125 0
1.5 0.28125 0
1.6875 0.28125 0
1.5 0.328125 0
1.6875 0.328125 0
1.6875 0.28125 0
1.875 0.28125 0
1.6875 0.328125 0
1.875 0.328125 0
1.5 0.328125 0
1.6875 0.328125 0
1.5 0.375 0
1.6875 0.375 0
1.6875 0.328125 0
1.875 0.328125 0
1.6875 0.375 0
1.875 0.375 0
1.875 0.28125 0
2.0625 0.28125 0
1.875 0.328125 0
2.0625 0.328125 0
2.0625 0.28125 0
2.25 0.28125 0
2.0625 0.328125 0
2.25 0.328125 0
1.875 0.328125 0
2.0625 0.328125 0
1.875 0.375 0
2.0625 0.375 0
2.0625 0.328125 0
2.25 0.328125 0
2.0625 0.375 0
2.25 0.375 0
2.25 0.1875 0
2.4375 0.1875 0
2.25 0.234375 0
2.4375 0.234375 0
2.4375 0.1875 0
2.625 0.1875 0
2.4375 0.234375 0
2.625 0.234375 0
2.25 0.234375 0
2.4375 0.234375 0
2.25 0.28125 0
2.4375 0.28125 0
2.4375 0.234375 0
2.625 0.234375 0
2.4375 0.28125 0
2.625 0.28125 0
2.625 0.1875 0
2.8125 0.1875 0
2.625 0.234375 0
2.8125 0.234375 0
2.8125 0.1875 0
3 0.1875 0
2.8125 0.234375 0
3 0.234375 0
2.625 0.234375 0
2.8125 0.234375 0
2.625 0.28125 0
2.8125 0.28125 0
2.8125 0.234375 0
3 0.234375 0
2.8125 0.28125 0
3 0.28125 0
2.25 0.28125 0
2.4375 0.28125 0
2.25 0.328125 0
2.4375 0.328125 0
2.4375 0.28125 0
2.625 0.28125 0
2.4375 0.328125 0
2.625 0.328125 0
2.25 0.328125 0
2.4375 0.328125 0
2.25 0.375 0
2.4375 0.375 0
2.4375 0.328125 0
2.625 0.328125 0
2.4375 0.375 0
2.625 0.375 0
2.625 0.28125 0
2.8125 0.28125 0
2.625 0.328125 0
2.8125 0.328125 0
2.8125 0.28125 0
3 0.28125 0
2.8125 0.328125 0
3 0.328125 0
2.625 0.328125 0
2.8125 0.328125 0
2.625 0.375 0
2.8125 0.375 0
2.8125 0.328125 0
3 0.328125 0
2.8125 0.375 0
3 0.375 0
0 0.375 0
0.1875 0.375 0
0 0.421875 0
0.1875 0.421875 0
0.1875 0.375 0
0.375 0.375 0
0.1875 0.421875 0
0.375 0.421875 0
0 0.421875 0
0.1875 0.421875 0
0 0.46875 0
0.1875 0.46875 0
0.1875 0.421875 0
0.375 0.421875 0
0.1875 0.46875 0
0.375 0.46875 0
0.375 0.375 0
0.5625 0.375 0
0.375 0.421875 0
0.5625 0.421875 0
0.5625 0.375 0
0.75 0.375 0
0.5625 0.421875 0
0.75 0.421875 0
0.375 0.421875 0
0.5625 0.421875 0
0.375 0.46875 0
0.5625 0.46875 0
0.5625 0.421875 0
0.75 0.421875 0
0.5625 0.46875 0
0.75 0.46875 0
0 0.46875 0
0.1875 0.46875 0
0 0.515625 0
0.1875 0.515625 0
0.1875 0.46875 0
0.375 0.46875 0
0.1875 0.515625 0
0.375 0.515625 0
0 0.515625 0
0.1875 0.515625 0
0 0.5625 0
0.1875 0.5625 0
0.1875 0.515625 0
0.375 0.515625 0
0.1875 0.5625 0
0.375 0.5625 0
0.375 0.46875 0
0.5625 0.46875 0
0.375 0.515625 0
0.5625 0.515625 0
0.5625 0.46875 0
0.75 0.46875 0
0.5625 0.515625 0
0.75 0.515625 0
0.375 0.515625 0
0.5625 0.515625 0
0.375 0.5625 0
0.5625 0.5625 0
0.5625 0.515625 0
0.75 0.515625 0
0.5625 0.5625 0
0.75 0.5625 0
0.75 0.375 0
0.9375 0.375 0
0.75 0.421875 0
0.9375 0.421875 0
0.9375 0.375 0
1.125 0.375 0
0.9375 0.421875 0
1.125 0.421875 0
0.75 0.421875 0
0.9375 0.421875 0
0.75 0.46875 0
0.9375 0.46875 0
0.9375 0.421875 0
1.125 0.421875 0
0.9375 0.46875 0
1.125 0.46875 0
1.125 0.375 0
1.3125 0.375 0
1.125 0.421875 0
1.3125 0.421875 0
1.3125 0.375 0
1.5 0.375 0
1.3125 0.421875 0
1.5 0.421875 0
1.125 0.421875 0
1.3125 0.421875 0
1.125 0.46875 0
1.3125 0.46875 0
1.3125 0.421875 0
1.5 0.421875 0
1.3125 0.46875 0
1.5 0.46875 0
0.75 0.46875 0
0.9375 0.46875 0
0.75 0.515625 0
0.9375 0.515625 0
0.9375 0.46875 0
1.125 0.46875 0
0.9375 0.515625 0
1.125 0.515625 0
0.75 0.515625 0
0.9375 0.515625 0
[...]
POINT_DATA 16384
SCALARS x_displacement double 1
LOOKUP_TABLE default
0 0.0251718 0 0.023682 0.0251718 0.0412817 0.023682 0.0410604 0 0.023682 0 0.0224675 0.023682 0.0410604 0.0224675 0.0395177 0.0412817 0.0464364 0.0410604 0.045945 0.0464364 0.0424186 0.045945 0.0419036 0.0410604 0.045945 0.0395177 0.0446972 0.045945 0.0419036 0.0446972 0.0409855 0 0.0224675 0 0.0212392 0.0224675 0.0395177 0.0212392 0.0369091 0 0.0212392 0 0.0200691 0.0212392 0.0369091 0.0200691 0.0340132 0.0395177 0.0446972 0.0369091 0.0425911 0.0446972 0.0409855 0.0425911 0.0396736 0.0369091 0.0425911 0.0340132 0.0394638 0.0425911 0.0396736 0.0394638 0.0380844 0.0424186 0.0388776 0.0419036 0.0385048 0.0388776 0.0367766 0.0385048 0.0365402 0.0419036 0.0385048 0.0409855 0.0379531 0.0385048 0.0365402 0.0379531 0.036187 0.0367766 0.035595 0.0365402 0.035376 0.035595 0.0349084 0.035376 0.0346823 0.0365402 0.035376 0.036187 0.0350923 0.035376 0.0346823 0.0350923 0.034417 0.0409855 0.0379531 0.0396736 0.0372498 0.0379531 0.036187 0.0372498 0.0357345 0.0396736 0.0372498 0.0380844 0.0364276 0.0372498 0.0357345 0.0364276 0.0351953 0.036187 0.0350923 0.0357345 0.0347466 0.0350923 0.034417 0.0347466 0.0341144 0.0357345 0.0347466 0.0351953 0.0343459 0.0347466 0.0341144 0.0343459 0.0337764 0 0.0200691 0 0.0189939 0.0200691 0.0340132 0.0189939 0.031172 0 0.0189939 0 0.0179849 0.0189939 0.031172 0.0179849 0.0288959 0.0340132 0.0394638 0.031172 0.0361924 0.0394638 0.0380844 0.0361924 0.0364419 0.031172 0.0361924 0.0288959 0.0335866 0.0361924 0.0364419 0.0335866 0.0347744 0 0.0179849 0 0.0171011 0.0179849 0.0288959 0.0171011 0.0270727 0 0.0171011 0 0.0163535 0.0171011 0.0270727 0.0163535 0.0256054 0.0288959 0.0335866 0.0270727 0.0315116 0.0335866 0.0347744 0.0315116 0.0332048 0.0270727 0.0315116 0.0256054 0.0298159 0.0315116 0.0332048 0.0298159 0.0317804 0.0380844 0.0364276 0.0364419 0.0354983 0.0364276 0.0351953 0.0354983 0.0345885 0.0364419 0.0354983 0.0347744 0.0345101 0.0354983 0.0345885 0.0345101 0.0339278 0.0351953 0.0343459 0.0345885 0.033897 0.0343459 0.0337764 0.033897 0.0334062 0.0345885 0.033897 0.0339278 0.0334079 0.033897 0.0334062 0.0334079 0.0330074 0.0347744 0.0345101 0.0332048 0.0334892 0.0345101 0.0339278 0.0334892 0.0332307 0.0332048 0.0334892 0.0317804 0.0324716 0.0334892 0.0332307 0.0324716 0.0325107 0.0339278 0.0334079 0.0332307 0.0328864 0.0334079 0.0330074 0.0328864 0.0325843 0.0332307 0.0328864 0.0325107 0.0323411 0.0328864 0.0325843 0.0323411 0.032141 0.0349084 0.0345101 0.0346823 0.0342699 0.0345101 0.0342867 0.0342699 0.0340307 0.0346823 0.0342699 0.034417 0.0340055 0.0342699 0.0340307 0.0340055 0.0337596 0.0342867 0.0341703 0.0340307 0.0338994 0.0341703 0.0341193 0.0338994 0.0338353 0.0340307 0.0338994 0.0337596 0.0336192 0.0338994 0.0338353 0.0336192 0.0335456 0.034417 0.0340055 0.0341144 0.0337173 0.0340055 0.0337596 0.0337173 0.0334734 0.0341144 0.0337173 0.0337764 0.0334063 0.0337173 0.0334734 0.0334063 0.0331724 0.0337596 0.0336192 0.0334734 0.0333293 0.0336192 0.0335456 0.0333293 0.0332499 0.0334734 0.0333293 0.0331724 0.03303 0.0333293 0.0332499 0.03303 0.0329481 0.0341193 0.0341073 0.0338353 0.0338122 0.0341073 0.0341176 0.0338122 0.0338133 0.0338353 0.0338122 0.0335456 0.0335137 0.0338122 0.0338133 0.0335137 0.0335071 0.0341176 0.0341396 0.0338133 0.0338278 0.0341396 0.0341664 0.0338278 0.0338487 0.0338133 0.0338278 0.0335071 0.0335151 0.0338278 0.0338487 0.0335151 0.0335307 0.0335456 0.0335137 0.0332499 0.0332116 0.0335137 0.0335071 0.0332116 0.0331989 0.0332499 0.0332116 0.0329481 0.0329057 0.0332116 0.0331989 0.0329057 0.0328884 0.0335071 0.0335151 0.0331989 0.0332014 0.0335151 0.0335307 0.0332014 0.0332123 0.0331989 0.0332014 0.0328884 0.0328865 0.0332014 0.0332123 0.0328865 0.0328934 0.0337764 0.0334063 0.0334062 0.033074 0.0334063 0.0331724 0.033074 0.0328573 0.0334062 0.033074 0.0330074 0.0327221 0.033074 0.0328573 0.0327221 0.0325289 0.0331724 0.03303 0.0328573 0.0327213 0.03303 0.0329481 0.0327213 0.0326403 0.0328573 0.0327213 0.0325289 0.0324037 0.0327213 0.0326403 0.0324037 0.0323266 0.0330074 0.0327221 0.0325843 0.0323527 0.0327221 0.0325289 0.0323527 0.0321883 0.0325843 0.0323527 0.032141 0.0319681 0.0323527 0.0321883 0.0319681 0.0318366 0.0325289 0.0324037 0.0321883 0.0320777 0.0324037 0.0323266 0.0320777 0.0320072 0.0321883 0.0320777 0.0318366 0.0317438 0.0320777 0.0320072 0.0317438 0.0316823 0.0329481 0.0329057 0.0326403 0.032596 0.0329057 0.0328884 0.032596 0.0325756 0.0326403 0.032596 0.0323266 0.0322825 0.032596 0.0325756 0.0322825 0.0322604 0.0328884 0.0328865 0.0325756 0.0325702 0.0328865 0.0328934 0.0325702 0.0325737 0.0325756 0.0325702 0.0322604 0.0322524 0.0325702 0.0325737 0.0322524 0.0322532 0.0323266 0.0322825 0.0320072 0.0319652 0.0322825 0.0322604 0.0319652 0.0319427 0.0320072 0.0319652 0.0316823 0.0316442 0.0319652 0.0319427 0.0316442 0.0316226 0.0322604 0.0322524 0.0319427 0.0319332 0.0322524 0.0322532 0.0319332 0.0319318 0.0319427 0.0319332 0.0316226 0.0316123 0.0319332 0.0319318 0.0316123 0.0316094 0 0.0163535 0 0.0157323 0.0163535 0.0256054 0.0157323 0.0244164 0 0.0157323 0 0.0152196 0.0157323 0.0244164 0.0152196 0.023446 0.0256054 0.0298159 0.0244164 0.0284091 0.0298159 0.0317804 0.0284091 0.0305064 0.0244164 0.0284091 0.023446 0.0272299 0.0284091 0.0305064 0.0272299 0.0293737 0 0.0152196 0 0.0147968 0.0152196 0.023446 0.0147968 0.0226485 0 0.0147968 0 0.0144471 0.0147968 0.0226485 0.0144471 0.0219883 0.023446 0.0272299 0.0226485 0.0262339 0.0272299 0.0293737 0.0262339 0.0283691 0.0226485 0.0262339 0.0219883 0.0253871 0.0262339 0.0283691 0.0253871 0.0274786 0.0317804 0.0324716 0.0305064 0.0314859 0.0324716 0.0325107 0.0314859 0.0317817 0.0305064 0.0314859 0.0293737 0.0305496 0.0314859 0.0317817 0.0305496 0.0310566 0.0325107 0.0323411 0.0317817 0.0317795 0.0323411 0.032141 0.0317795 0.0316819 0.0317817 0.0317795 0.0310566 0.0312088 0.0317795 0.0316819 0.0312088 0.0312114 0.0293737 0.0305496 0.0283691 0.0296718 0.0305496 0.0310566 0.0296718 0.0303459 0.0283691 0.0296718 0.0274786 0.0288557 0.0296718 0.0303459 0.0288557 0.0296576 0.0310566 0.0312088 0.0303459 0.0306357 0.0312088 0.0312114 0.0306357 0.0307335 0.0303459 0.0306357 0.0296576 0.030066 0.0306357 0.0307335 0.030066 0.030252 0 0.0144471 0 0.0141562 0.0144471 0.0219883 0.0141562 0.0214377 0 0.0141562 0 0.0139127 0.0141562 0.0214377 0.0139127 0.0209749 0.0219883 0.0253871 0.0214377 0.0246629 0.0253871 0.0274786 0.0246629 0.0266888 0.0214377 0.0246629 0.0209749 0.0240401 0.0246629 0.0266888 0.0240401 0.0259873 0 0.0139127 0 0.0137073 0.0139127 0.0209749 0.0137073 0.0205829 0 0.0137073 0 0.0135326 0.0137073 0.0205829 0.0135326 0.0202482 0.0209749 0.0240401 0.0205829 0.0235014 0.0240401 0.0259873 0.0235014 0.025363 0.0205829 0.0235014 0.0202482 0.0230328 0.0235014 0.025363 0.0230328 0.024806 0.0274786 0.0288557 0.0266888 0.0281015 0.0288557 0.0296576 0.0281015 0.0289969 0.0266888 0.0281015 0.0259873 0.0274068 0.0281015 0.0289969 0.0274068 0.0283673 0.0296576 0.030066 0.0289969 0.0295046 0.030066 0.030252 0.0295046 0.0297704 0.0289969 0.0295046 0.0283673 0.0289556 0.0295046 0.0297704 0.0289556 0.0292918 0.0259873 0.0274068 0.025363 0.0267684 0.0274068 0.0283673 0.0267684 0.0277703 0.025363 0.0267684 0.024806 0.0261823 0.0267684 0.0277703 0.0261823 0.0272064 0.0283673 0.0289556 0.0277703 0.028422 0.0289556 0.0292918 0.028422 0.0288187 0.0277703 0.028422 0.0272064 0.0279058 0.028422 0.0288187 0.0279058 0.0283533 0.032141 0.0319681 0.0316819 0.0315706 0.0319681 0.0318366 0.0315706 0.0314752 0.0316819 0.0315706 0.0312114 0.0311627 0.0315706 0.0314752 0.0311627 0.0311054 0.0318366 0.0317438 0.0314752 0.0314029 0.0317438 0.0316823 0.0314029 0.0313525 0.0314752 0.0314029 0.0311054 0.0310557 0.0314029 0.0313525 0.0310557 0.031018 0.0312114 0.0311627 0.0307335 0.030747 0.0311627 0.0311054 0.030747 0.0307288 0.0307335 0.030747 0.030252 0.0303257 0.030747 0.0307288 0.0303257 0.0303468 0.0311054 0.0310557 0.0307288 0.030703 0.0310557 0.031018 0.030703 0.0306794 0.0307288 0.030703 0.0303468 0.0303457 0.030703 0.0306794 0.0303457 0.0303372 0.0316823 0.0316442 0.0313525 0.0313197 0.0316442 0.0316226 0.0313197 0.0313001 0.0313525 0.0313197 0.031018 0.0309919 0.0313197 0.0313001 0.0309919 0.0309754 0.0316226 0.0316123 0.0313001 0.03129 0.0316123 0.0316094 0.03129 0.0312861 0.0313001 0.03129 0.0309754 0.0309661 0.03129 0.0312861 0.0309661 0.0309618 0.031018 0.0309919 0.0306794 0.0306611 0.0309919 0.0309754 0.0306611 0.0306485 0.0306794 0.0306611 0.0303372 0.0303276 0.0306611 0.0306485 0.0303276 0.0303196 0.0309754 0.0309661 0.0306485 0.0306407 0.0309661 0.0309618 0.0306407 0.0306365 0.0306485 0.0306407 0.0303196 0.0303138 0.0306407 0.0306365 0.0303138 0.0303102 0.030252 0.0303257 0.0297704 0.0299011 0.0303257 0.0303468 0.0299011 0.0299608 0.0297704 0.0299011 0.0292918 0.0294754 0.0299011 0.0299608 0.0294754 0.0295722 0.0303468 0.0303457 0.0299608 0.0299847 0.0303457 0.0303372 0.0299847 0.0299918 0.0299608 0.0299847 0.0295722 0.0296209 0.0299847 0.0299918 0.0296209 0.0296439 0.0292918 0.0294754 0.0288187 0.0290505 0.0294754 0.0295722 0.0290505 0.0291823 0.0288187 0.0290505 0.0283533 0.0286281 0.0290505 0.0291823 0.0286281 0.0287923 0.0295722 0.0296209 0.0291823 0.0292551 0.0296209 0.0296439 0.0292551 0.029294 0.0291823 0.0292551 0.0287923 0.0288882 0.0292551 0.029294 0.0288882 0.0289426 0.0303372 0.0303276 0.0299918 0.0299916 0.0303276 0.0303196 0.0299916 0.0299888 0.0299918 0.0299916 0.0296439 0.0296535 0.0299916 0.0299888 0.0296535 0.0296564 0.0303196 0.0303138 0.0299888 0.0299857 0.0303138 0.0303102 0.0299857 0.029983 0.0299888 0.0299857 0.0296564 0.0296562 0.0299857 0.029983 0.0296562 0.0296548 0.0296439 0.0296535 0.029294 0.0293136 0.0296535 0.0296564 0.0293136 0.0293225 0.029294 0.0293136 0.0289426 0.0289723 0.0293136 0.0293225 0.0289723 0.0289874 0.0296564 0.0296562 0.0293225 0.0293256 0.0296562 0.0296548 0.0293256 0.0293257 0.0293225 0.0293256 0.0289874 0.028994 0.0293256 0.0293257 0.028994 0.0289958 0.0341664 0.0341941 0.0338487 0.0338718 0.0341941 0.0342203 0.0338718 0.0338944 0.0338487 0.0338718 0.0335307 0.0335495 0.0338718 0.0338944 0.0335495 0.0335687 0.0342203 0.0342438 0.0338944 0.0339151 0.0342438 0.034264 0.0339151 0.0339333 0.0338944 0.0339151 0.0335687 0.0335869 0.0339151 0.0339333 0.0335869 0.033603 0.0335307 0.0335495 0.0332123 0.0332272 0.0335495 0.0335687 0.0332272 0.0332433 0.0332123 0.0332272 0.0328934 0.0329047 0.0332272 0.0332433 0.0329047 0.0329179 0.0335687 0.0335869 0.0332433 0.0332589 0.0335869 0.033603 0.0332589 0.0332731 0.0332433 0.0332589 0.0329179 0.0329311 0.0332589 0.0332731 0.0329311 0.0329434 0.034264 0.0342809 0.0339333 0.0339488 0.0342809 0.0342947 0.0339488 0.0339615 0.0339333 0.0339488 0.033603 0.033617 0.0339488 0.0339615 0.033617 0.0336286 0.0342947 0.0343058 0.0339615 0.0339718 0.0343058 0.0343144 0.0339718 0.0339799 0.0339615 0.0339718 0.0336286 0.0336381 0.0339718 0.0339799 0.0336381 0.0336456 0.033603 0.033617 0.0332731 0.0332855 0.033617 0.0336286 0.0332855 0.033296 0.0332731 0.0332855 0.0329434 0.0329544 0.0332855 0.033296 0.0329544 0.0329637 0.0336286 0.0336381 0.033296 0.0333047 0.0336381 0.0336456 0.0333047 0.0333116 0.033296 0.0333047 0.0329637 0.0329715 0.0333047 0.0333116 0.0329715 0.0329778 0.0328934 0.0329047 0.0325737 0.032582 0.0329047 0.0329179 0.032582 0.0325924 0.0325737 0.032582 0.0322532 0.0322588 0.032582 0.0325924 0.0322588 0.0322669 0.0329179 0.0329311 0.0325924 0.0326035 0.0329311 0.0329434 0.0326035 0.032614 0.0325924 0.0326035 0.0322669 0.0322758 0.0326035 0.032614 0.0322758 0.0322846 0.0322532 0.0322588 0.0319318 0.0319352 0.0322588 0.0322669 0.0319352 0.0319412 0.0319318 0.0319352 0.0316094 0.0316111 0.0319352 0.0319412 0.0316111 0.0316152 0.0322669 0.0322758 0.0319412 0.0319482 0.0322758 0.0322846 0.0319482 0.0319554 0.0319412 0.0319482 0.0316152 0.0316205 0.0319482 0.0319554 0.0316205 0.0316261 0.0329434 0.0329544 0.032614 0.0326235 0.0329544 0.0329637 0.0326235 0.0326317 0.032614 0.0326235 0.0322846 0.0322927 0.0326235 0.0326317 0.0322927 0.0322998 0.0329637 0.0329715 0.0326317 0.0326386 0.0329715 0.0329778 0.0326386 0.0326442 0.0326317 0.0326386 0.0322998 0.0323058 0.0326386 0.0326442 0.0323058 0.0323108 0.0322846 0.0322927 0.0319554 0.0319621 0.0322927 0.0322998 0.0319621 0.0319681 0.0319554 0.0319621 0.0316261 0.0316315 0.0319621 0.0319681 0.0316315 0.0316365 0.0322998 0.0323058 0.0319681 0.0319732 0.0323058 0.0323108 0.0319732 0.0319775 0.0319681 0.0319732 0.0316365 0.0316407 0.0319732 0.0319775 0.0316407 0.0316443 0.0343144 0.034321 0.0339799 0.0339862 0.034321 0.034326 0.0339862 0.033991 0.0339799 0.0339862 0.0336456 0.0336515 0.0339862 0.033991 0.0336515 0.0336561 0.034326 0.0343297 0.033991 0.0339945 0.0343297 0.0343324 0.0339945 0.0339971 0.033991 0.0339945 0.0336561 0.0336595 0.0339945 0.0339971 0.0336595 0.033662 0.0336456 0.0336515 0.0333116 0.0333171 0.0336515 0.0336561 0.0333171 0.0333213 0.0333116 0.0333171 0.0329778 0.0329829 0.0333171 0.0333213 0.0329829 0.0329868 0.0336561 0.0336595 0.0333213 0.0333245 0.0336595 0.033662 0.0333245 0.0333269 0.0333213 0.0333245 0.0329868 0.0329897 0.0333245 0.0333269 0.0329897 0.032992 0.0343324 0.0343342 0.0339971 0.033999 0.0343342 0.0343355 0.033999 0.0340002 0.0339971 0.033999 0.033662 0.0336638 0.033999 0.0340002 0.0336638 0.033665 0.0343355 0.0343363 0.0340002 0.0340011 0.0343363 0.0343369 0.0340011 0.0340016 0.0340002 0.0340011 0.033665 0.0336659 0.0340011 0.0340016 0.0336659 0.0336664 0.033662 0.0336638 0.0333269 0.0333286 0.0336638 0.033665 0.0333286 0.0333299 0.0333269 0.0333286 0.032992 0.0329936 0.0333286 0.0333299 0.0329936 0.0329947 0.033665 0.0336659 0.0333299 0.0333307 0.0336659 0.0336664 0.0333307 0.0333312 0.0333299 0.0333307 0.0329947 0.0329956 0.0333307 0.0333312 0.0329956 0.0329961 0.0329778 0.0329829 0.0326442 0.0326488 0.0329829 0.0329868 0.0326488 0.0326523 0.0326442 0.0326488 0.0323108 0.0323148 0.0326488 0.0326523 0.0323148 0.032318 0.0329868 0.0329897 0.0326523 0.032655 0.0329897 0.032992 0.032655 0.0326571 0.0326523 0.032655 0.032318 0.0323204 0.032655 0.0326571 0.0323204 0.0323223 0.0323108 0.0323148 0.0319775 0.031981 0.0323148 0.032318 0.031981 0.0319838 0.0319775 0.031981 0.0316443 0.0316473 0.031981 0.0319838 0.0316473 0.0316497 0.032318 0.0323204 0.0319838 0.0319859 0.0323204 0.0323223 0.0319859 0.0319876 0.0319838 0.0319859 0.0316497 0.0316515 0.0319859 0.0319876 0.0316515 0.0316529 0.032992 0.0329936 0.0326571 0.0326586 0.0329936 0.0329947 0.0326586 0.0326597 0.0326571 0.0326586 0.0323223 0.0323237 0.0326586 0.0326597 0.0323237 0.0323247 0.0329947 0.0329956 0.0326597 0.0326605 0.0329956 0.0329961 0.0326605 0.032661 0.0326597 0.0326605 0.0323247 0.0323254 0.0326605 0.032661 0.0323254 0.0323259 0.0323223 0.0323237 0.0319876 0.0319888 0.0323237 0.0323247 0.0319888 0.0319897 0.0319876 0.0319888 0.0316529 0.031654 0.0319888 0.0319897 0.031654 0.0316548 0.0323247 0.0323254 0.0319897 0.0319904 0.0323254 0.0323259 0.0319904 0.0319908 0.0319897 0.0319904 0.0316548 0.0316554 0.0319904 0.0319908 0.0316554 0.0316558 0.0316094 0.0316111 0.0312861 0.0312863 0.0316111 0.0316152 0.0312863 0.0312889 0.0312861 0.0312863 0.0309618 0.030961 0.0312863 0.0312889 0.030961 0.0309622 0.0316152 0.0316205 0.0312889 0.0312926 0.0316205 0.0316261 0.0312926 0.0312968 0.0312889 0.0312926 0.0309622 0.0309646 0.0312926 0.0312968 0.0309646 0.0309675 0.0309618 0.030961 0.0306365 0.030635 0.030961 0.0309622 0.030635 0.0306351 0.0306365 0.030635 0.0303102 0.0303083 0.030635 0.0306351 0.0303083 0.0303076 0.0309622 0.0309646 0.0306351 0.0306363 0.0309646 0.0309675 0.0306363 0.0306381 0.0306351 0.0306363 0.0303076 0.0303078 0.0306363 0.0306381 0.0303078 0.0303085 0.0316261 0.0316315 0.0312968 0.031301 0.0316315 0.0316365 0.031301 0.0313049 0.0312968 0.031301 0.0309675 0.0309705 0.031301 0.0313049 0.0309705 0.0309734 0.0316365 0.0316407 0.0313049 0.0313083 0.0316407 0.0316443 0.0313083 0.0313113 0.0313049 0.0313083 0.0309734 0.030976 0.0313083 0.0313113 0.030976 0.0309782 0.0309675 0.0309705 0.0306381 0.03064 0.0309705 0.0309734 0.03064 0.0306419 0.0306381 0.03064 0.0303085 0.0303094 0.03064 0.0306419 0.0303094 0.0303104 0.0309734 0.030976 0.0306419 0.0306437 0.030976 0.0309782 0.0306437 0.0306453 0.0306419 0.0306437 0.0303104 0.0303114 0.0306437 0.0306453 0.0303114 0.0303124 0.0303102 0.0303083 0.029983 0.029981 0.0303083 0.0303076 0.029981 0.0299797 0.029983 0.029981 0.0296548 0.029653 0.029981 0.0299797 0.029653 0.0296513 0.0303076 0.0303078 0.0299797 0.029979 0.0303078 0.0303085 0.029979 0.0299787 0.0299797 0.029979 0.0296513 0.0296499 0.029979 0.0299787 0.0296499 0.0296488 0.0296548 0.029653 0.0293257 0.0293243 0.029653 0.0296513 0.0293243 0.0293224 0.0293257 0.0293243 0.0289958 0.0289951 0.0293243 0.0293224 0.0289951 0.0289931 0.0296513 0.0296499 0.0293224 0.0293204 0.0296499 0.0296488 0.0293204 0.0293186 0.0293224 0.0293204 0.0289931 0.0289907 0.0293204 0.0293186 0.0289907 0.0289882 0.0303085 0.0303094 0.0299787 0.0299787 0.0303094 0.0303104 0.0299787 0.0299789 0.0299787 0.0299787 0.0296488 0.0296479 0.0299787 0.0299789 0.0296479 0.0296473 0.0303104 0.0303114 0.0299789 0.0299791 0.0303114 0.0303124 0.0299791 0.0299794 0.0299789 0.0299791 0.0296473 0.0296468 0.0299791 0.0299794 0.0296468 0.0296465 0.0296488 0.0296479 0.0293186 0.029317 0.0296479 0.0296473 0.029317 0.0293156 0.0293186 0.029317 0.0289882 0.0289858 0.029317 0.0293156 0.0289858 0.0289838 0.0296473 0.0296468 0.0293156 0.0293145 0.0296468 0.0296465 0.0293145 0.0293136 0.0293156 0.0293145 0.0289838 0.028982 0.0293145 0.0293136 0.028982 0.0289806 0.0316443 0.0316473 0.0313113 0.0313137 0.0316473 0.0316497 0.0313137 0.0313156 0.0313113 0.0313137 0.0309782 0.0309801 0.0313137 0.0313156 0.0309801 0.0309816 0.0316497 0.0316515 0.0313156 0.0313172 0.0316515 0.0316529 0.0313172 0.0313184 0.0313156 0.0313172 0.0309816 0.0309829 0.0313172 0.0313184 0.0309829 0.0309838 0.0309782 0.0309801 0.0306453 0.0306466 0.0309801 0.0309816 0.0306466 0.0306477 0.0306453 0.0306466 0.0303124 0.0303132 0.0306466 0.0306477 0.0303132 0.0303138 0.0309816 0.0309829 0.0306477 0.0306486 0.0309829 0.0309838 0.0306486 0.0306493 0.0306477 0.0306486 0.0303138 0.0303144 0.0306486 0.0306493 0.0303144 0.0303149 0.0316529 0.031654 0.0313184 0.0313193 0.031654 0.0316548 0.0313193 0.0313199 0.0313184 0.0313193 0.0309838 0.0309846 0.0313193 0.0313199 0.0309846 0.0309851 0.0316548 0.0316554 0.0313199 0.0313204 0.0316554 0.0316558 0.0313204 0.0313208 0.0313199 0.0313204 0.0309851 0.0309855 0.0313204 0.0313208 0.0309855 0.0309858 0.0309838 0.0309846 0.0306493 0.0306499 0.0309846 0.0309851 0.0306499 0.0306503 0.0306493 0.0306499 0.0303149 0.0303152 0.0306499 0.0306503 0.0303152 0.0303155 0.0309851 0.0309855 0.0306503 0.0306506 0.0309855 0.0309858 0.0306506 0.0306508 0.0306503 0.0306506 0.0303155 0.0303157 0.0306506 0.0306508 0.0303157 0.0303158 0.0303124 0.0303132 0.0299794 0.0299797 0.0303132 0.0303138 0.0299797 0.02998 0.0299794 0.0299797 0.0296465 0.0296463 0.0299797 0.02998 0.0296463 0.0296462 0.0303138 0.0303144 0.02998 0.0299802 0.0303144 0.0303149 0.0299802 0.0299804 0.02998 0.0299802 0.0296462 0.0296461 0.0299802 0.0299804 0.0296461 0.029646 0.0296465 0.0296463 0.0293136 0.0293129 0.0296463 0.0296462 0.0293129 0.0293123 0.0293136 0.0293129 0.0289806 0.0289794 0.0293129 0.0293123 0.0289794 0.0289785 0.0296462 0.0296461 0.0293123 0.0293119 0.0296461 0.029646 0.0293119 0.0293116 0.0293123 0.0293119 0.0289785 0.0289778 0.0293119 0.0293116 0.0289778 0.0289772 0.0303149 0.0303152 0.0299804 0.0299806 0.0303152 0.0303155 0.0299806 0.0299807 0.0299804 0.0299806 0.029646 0.029646 0.0299806 0.0299807 0.029646 0.029646 0.0303155 0.0303157 0.0299807 0.0299808 0.0303157 0.0303158 0.0299808 0.0299809 0.0299807 0.0299808 0.029646 0.029646 0.0299808 0.0299809 0.029646 0.029646 0.029646 0.029646 0.0293116 0.0293114 0.029646 0.029646 0.0293114 0.0293112 0.0293116 0.0293114 0.0289772 0.0289768 0.0293114 0.0293112 0.0289768 0.0289765 0.029646 0.029646 0.0293112 0.0293111 0.029646 0.029646 0.0293111 0.029311 0.0293112 0.0293111 0