# vtk DataFile Version 3.0
#This file was generated by the deal.II library on 2022/1/6 at 23:04:43
ASCII
DATASET UNSTRUCTURED_GRID

POINTS 16384 double
0 0 0
0.1875 0 0
0 0.046875 0
0.1875 0.046875 0
0.1875 0 0
0.375 0 0
0.1875 0.046875 0
0.375 0.046875 0
0 0.046875 0
0.1875 0.046875 0
0 0.09375 0
0.1875 0.09375 0
0.1875 0.046875 0
0.375 0.046875 0
0.1875 0.09375 0
0.375 0.09375 0
0.375 0 0
0.5625 0 0
0.375 0.046875 0
0.5625 0.046875 0
0.5625 0 0
0.75 0 0
0.5625 0.046875 0
0.75 0.046875 0
0.375 0.046875 0
0.5625 0.046875 0
0.375 0.09375 0
0.5625 0.09375 0
0.5625 0.046875 0
0.75 0.046875 0
0.5625 0.09375 0
0.75 0.09375 0
0 0.09375 0
0.1875 0.09375 0
0 0.140625 0
0.1875 0.140625 0
0.1875 0.09375 0
0.375 0.09375 0
0.1875 0.140625 0
0.375 0.140625 0
0 0.140625 0
0.1875 0.140625 0
0 0.1875 0
0.1875 0.1875 0
0.1875 0.140625 0
0.375 0.140625 0
0.1875 0.1875 0
0.375 0.1875 0
0.375 0.09375 0
0.5625 0.09375 0
0.375 0.140625 0
0.5625 0.140625 0
0.5625 0.09375 0
0.75 0.09375 0
0.5625 0.140625 0
0.75 0.140625 0
0.375 0.140625 0
0.5625 0.140625 0
0.375 0.1875 0
0.5625 0.1875 0
0.5625 0.140625 0
0.75 0.140625 0
0.5625 0.1875 0
0.75 0.1875 0
0.75 0 0
0.9375 0 0
0.75 0.046875 0
0.9375 0.046875 0
0.9375 0 0
1.125 0 0
0.9375 0.046875 0
1.125 0.046875 0
0.75 0.046875 0
0.9375 0.046875 0
0.75 0.09375 0
0.9375 0.09375 0
0.9375 0.046875 0
1.125 0.046875 0
0.9375 0.09375 0
1.125 0.09375 0
1.125 0 0
1.3125 0 0
1.125 0.046875 0
1.3125 0.046875 0
1.3125 0 0
1.5 0 0
1.3125 0.046875 0
1.5 0.046875 0
1.125 0.046875 0
1.3125 0.046875 0
1.125 0.09375 0
1.3125 0.09375 0
1.3125 0.046875 0
1.5 0.046875 0
1.3125 0.09375 0
1.5 0.09375 0
0.75 0.09375 0
0.9375 0.09375 0
0.75 0.140625 0
0.9375 0.140625 0
0.9375 0.09375 0
1.125 0.09375 0
0.9375 0.140625 0
1.125 0.140625 0
0.75 0.140625 0
0.9375 0.140625 0
0.75 0.1875 0
0.9375 0.1875 0
0.9375 0.140625 0
1.125 0.140625 0
0.9375 0.1875 0
1.125 0.1875 0
1.125 0.09375 0
1.3125 0.09375 0
1.125 0.140625 0
1.3125 0.140625 0
1.3125 0.09375 0
1.5 0.09375 0
1.3125 0.140625 0
1.5 0.140625 0
1.125 0.140625 0
1.3125 0.140625 0
1.125 0.1875 0
1.3125 0.1875 0
1.3125 0.140625 0
1.5 0.140625 0
1.3125 0.1875 0
1.5 0.1875 0
0 0.1875 0
0.1875 0.1875 0
0 0.234375 0
0.1875 0.234375 0
0.1875 0.1875 0
0.375 0.1875 0
0.1875 0.234375 0
0.375 0.234375 0
0 0.234375 0
0.1875 0.234375 0
0 0.28125 0
0.1875 0.28125 0
0.1875 0.234375 0
0.375 0.234375 0
0.1875 0.28125 0
0.375 0.28125 0
0.375 0.1875 0
0.5625 0.1875 0
0.375 0.234375 0
0.5625 0.234375 0
0.5625 0.1875 0
0.75 0.1875 0
0.5625 0.234375 0
0.75 0.234375 0
0.375 0.234375 0
0.5625 0.234375 0
0.375 0.28125 0
0.5625 0.28125 0
0.5625 0.234375 0
0.75 0.234375 0
0.5625 0.28125 0
0.75 0.28125 0
0 0.28125 0
0.1875 0.28125 0
0 0.328125 0
0.1875 0.328125 0
0.1875 0.28125 0
0.375 0.28125 0
0.1875 0.328125 0
0.375 0.328125 0
0 0.328125 0
0.1875 0.328125 0
0 0.375 0
0.1875 0.375 0
0.1875 0.328125 0
0.375 0.328125 0
0.1875 0.375 0
0.375 0.375 0
0.375 0.28125 0
0.5625 0.28125 0
0.375 0.328125 0
0.5625 0.328125 0
0.5625 0.28125 0
0.75 0.28125 0
0.5625 0.328125 0
0.75 0.328125 0
0.375 0.328125 0
0.5625 0.328125 0
0.375 0.375 0
0.5625 0.375 0
0.5625 0.328125 0
0.75 0.328125 0
0.5625 0.375 0
0.75 0.375 0
0.75 0.1875 0
0.9375 0.1875 0
0.75 0.234375 0
0.9375 0.234375 0
0.9375 0.1875 0
1.125 0.1875 0
0.9375 0.234375 0
1.125 0.234375 0
0.75 0.234375 0
0.9375 0.234375 0
0.75 0.28125 0
0.9375 0.28125 0
0.9375 0.234375 0
1.125 0.234375 0
0.9375 0.28125 0
1.125 0.28125 0
1.125 0.1875 0
1.3125 0.1875 0
1.125 0.234375 0
1.3125 0.234375 0
1.3125 0.1875 0
1.5 0.1875 0
1.3125 0.234375 0
1.5 0.234375 0
1.125 0.234375 0
1.3125 0.234375 0
1.125 0.28125 0
1.3125 0.28125 0
1.3125 0.234375 0
1.5 0.234375 0
1.3125 0.28125 0
1.5 0.28125 0
0.75 0.28125 0
0.9375 0.28125 0
0.75 0.328125 0
0.9375 0.328125 0
0.9375 0.28125 0
1.125 0.28125 0
0.9375 0.328125 0
1.125 0.328125 0
0.75 0.328125 0
0.9375 0.328125 0
0.75 0.375 0
0.9375 0.375 0
0.9375 0.328125 0
1.125 0.328125 0
0.9375 0.375 0
1.125 0.375 0
1.125 0.28125 0
1.3125 0.28125 0
1.125 0.328125 0
1.3125 0.328125 0
1.3125 0.28125 0
1.5 0.28125 0
1.3125 0.328125 0
1.5 0.328125 0
1.125 0.328125 0
1.3125 0.328125 0
1.125 0.375 0
1.3125 0.375 0
1.3125 0.328125 0
1.5 0.328125 0
1.3125 0.375 0
1.5 0.375 0
1.5 0 0
1.6875 0 0
1.5 0.046875 0
1.6875 0.046875 0
1.6875 0 0
1.875 0 0
1.6875 0.046875 0
1.875 0.046875 0
1.5 0.046875 0
1.6875 0.046875 0
1.5 0.09375 0
1.6875 0.09375 0
1.6875 0.046875 0
1.875 0.046875 0
1.6875 0.09375 0
1.875 0.09375 0
1.875 0 0
2.0625 0 0
1.875 0.046875 0
2.0625 0.046875 0
2.0625 0 0
2.25 0 0
2.0625 0.046875 0
2.25 0.046875 0
1.875 0.046875 0
2.0625 0.046875 0
1.875 0.09375 0
2.0625 0.09375 0
2.0625 0.046875 0
2.25 0.046875 0
2.0625 0.09375 0
2.25 0.09375 0
1.5 0.09375 0
1.6875 0.09375 0
1.5 0.140625 0
1.6875 0.140625 0
1.6875 0.09375 0
1.875 0.09375 0
1.6875 0.140625 0
1.875 0.140625 0
1.5 0.140625 0
1.6875 0.140625 0
1.5 0.1875 0
1.6875 0.1875 0
1.6875 0.140625 0
1.875 0.140625 0
1.6875 0.1875 0
1.875 0.1875 0
1.875 0.09375 0
2.0625 0.09375 0
1.875 0.140625 0
2.0625 0.140625 0
2.0625 0.09375 0
2.25 0.09375 0
2.0625 0.140625 0
2.25 0.140625 0
1.875 0.140625 0
2.0625 0.140625 0
1.875 0.1875 0
2.0625 0.1875 0
2.0625 0.140625 0
2.25 0.140625 0
2.0625 0.1875 0
2.25 0.1875 0
2.25 0 0
2.4375 0 0
2.25 0.046875 0
2.4375 0.046875 0
2.4375 0 0
2.625 0 0
2.4375 0.046875 0
2.625 0.046875 0
2.25 0.046875 0
2.4375 0.046875 0
2.25 0.09375 0
2.4375 0.09375 0
2.4375 0.046875 0
2.625 0.046875 0
2.4375 0.09375 0
2.625 0.09375 0
2.625 0 0
2.8125 0 0
2.625 0.046875 0
2.8125 0.046875 0
2.8125 0 0
3 0 0
2.8125 0.046875 0
3 0.046875 0
2.625 0.046875 0
2.8125 0.046875 0
2.625 0.09375 0
2.8125 0.09375 0
2.8125 0.046875 0
3 0.046875 0
2.8125 0.09375 0
3 0.09375 0
2.25 0.09375 0
2.4375 0.09375 0
2.25 0.140625 0
2.4375 0.140625 0
2.4375 0.09375 0
2.625 0.09375 0
2.4375 0.140625 0
2.625 0.140625 0
2.25 0.140625 0
2.4375 0.140625 0
2.25 0.1875 0
2.4375 0.1875 0
2.4375 0.140625 0
2.625 0.140625 0
2.4375 0.1875 0
2.625 0.1875 0
2.625 0.09375 0
2.8125 0.09375 0
2.625 0.140625 0
2.8125 0.140625 0
2.8125 0.09375 0
3 0.09375 0
2.8125 0.140625 0
3 0.140625 0
2.625 0.140625 0
2.8125 0.140625 0
2.625 0.1875 0
2.8125 0.1875 0
2.8125 0.140625 0
3 0.140625 0
2.8125 0.1875 0
3 0.1875 0
1.5 0.1875 0
1.6875 0.1875 0
1.5 0.234375 0
1.6875 0.234375 0
1.6875 0.1875 0
1.875 0.1875 0
1.6875 0.234375 0
1.875 0.234375 0
1.5 0.234375 0
1.6875 0.234375 0
1.5 0.28125 0
1.6875 0.28125 0
1.6875 0.234375 0
1.875 0.234375 0
1.6875 0.28125 0
1.875 0.28125 0
1.875 0.1875 0
2.0625 0.1875 0
1.875 0.234375 0
2.0625 0.234375 0
2.0625 0.1875 0
2.25 0.1875 0
2.0625 0.234375 0
2.25 0.234375 0
1.875 0.234375 0
2.0625 0.234375 0
1.875 0.28125 0
2.0625 0.28125 0
2.0625 0.234375 0
2.25 0.234375 0
2.0625 0.28125 0
2.25 0.28125 0
1.5 0.28125 0
1.6875 0.28125 0
1.5 0.328125 0
1.6875 0.328125 0
1.6875 0.28125 0
1.875 0.28125 0
1.6875 0.328125 0
1.875 0.328125 0
1.5 0.328125 0
1.6875 0.328125 0
1.5 0.375 0
1.6875 0.375 0
1.6875 0.328125 0
1.875 0.328125 0
1.6875 0.375 0
1.875 0.375 0
1.875 0.28125 0
2.0625 0.28125 0
1.875 0.328125 0
2.0625 0.328125 0
2.0625 0.28125 0
2.25 0.28125 0
2.0625 0.328125 0
2.25 0.328125 0
1.875 0.328125 0
2.0625 0.328125 0
1.875 0.375 0
2.0625 0.375 0
2.0625 0.328125 0
2.25 0.328125 0
2.0625 0.375 0
2.25 0.375 0
2.25 0.1875 0
2.4375 0.1875 0
2.25 0.234375 0
2.4375 0.234375 0
2.4375 0.1875 0
2.625 0.1875 0
2.4375 0.234375 0
2.625 0.234375 0
2.25 0.234375 0
2.4375 0.234375 0
2.25 0.28125 0
2.4375 0.28125 0
2.4375 0.234375 0
2.625 0.234375 0
2.4375 0.28125 0
2.625 0.28125 0
2.625 0.1875 0
2.8125 0.1875 0
2.625 0.234375 0
2.8125 0.234375 0
2.8125 0.1875 0
3 0.1875 0
2.8125 0.234375 0
3 0.234375 0
2.625 0.234375 0
2.8125 0.234375 0
2.625 0.28125 0
2.8125 0.28125 0
2.8125 0.234375 0
3 0.234375 0
2.8125 0.28125 0
3 0.28125 0
2.25 0.28125 0
2.4375 0.28125 0
2.25 0.328125 0
2.4375 0.328125 0
2.4375 0.28125 0
2.625 0.28125 0
2.4375 0.328125 0
2.625 0.328125 0
2.25 0.328125 0
2.4375 0.328125 0
2.25 0.375 0
2.4375 0.375 0
2.4375 0.328125 0
2.625 0.328125 0
2.4375 0.375 0
2.625 0.375 0
2.625 0.28125 0
2.8125 0.28125 0
2.625 0.328125 0
2.8125 0.328125 0
2.8125 0.28125 0
3 0.28125 0
2.8125 0.328125 0
3 0.328125 0
2.625 0.328125 0
2.8125 0.328125 0
2.625 0.375 0
2.8125 0.375 0
2.8125 0.328125 0
3 0.328125 0
2.8125 0.375 0
3 0.375 0
0 0.375 0
0.1875 0.375 0
0 0.421875 0
0.1875 0.421875 0
0.1875 0.375 0
0.375 0.375 0
0.1875 0.421875 0
0.375 0.421875 0
0 0.421875 0
0.1875 0.421875 0
0 0.46875 0
0.1875 0.46875 0
0.1875 0.421875 0
0.375 0.421875 0
0.1875 0.46875 0
0.375 0.46875 0
0.375 0.375 0
0.5625 0.375 0
0.375 0.421875 0
0.5625 0.421875 0
0.5625 0.375 0
0.75 0.375 0
0.5625 0.421875 0
0.75 0.421875 0
0.375 0.421875 0
0.5625 0.421875 0
0.375 0.46875 0
0.5625 0.46875 0
0.5625 0.421875 0
0.75 0.421875 0
0.5625 0.46875 0
0.75 0.46875 0
0 0.46875 0
0.1875 0.46875 0
0 0.515625 0
0.1875 0.515625 0
0.1875 0.46875 0
0.375 0.46875 0
0.1875 0.515625 0
0.375 0.515625 0
0 0.515625 0
0.1875 0.515625 0
0 0.5625 0
0.1875 0.5625 0
0.1875 0.515625 0
0.375 0.515625 0
0.1875 0.5625 0
0.375 0.5625 0
0.375 0.46875 0
0.5625 0.46875 0
0.375 0.515625 0
0.5625 0.515625 0
0.5625 0.46875 0
0.75 0.46875 0
0.5625 0.515625 0
0.75 0.515625 0
0.375 0.515625 0
0.5625 0.515625 0
0.375 0.5625 0
0.5625 0.5625 0
0.5625 0.515625 0
0.75 0.515625 0
0.5625 0.5625 0
0.75 0.5625 0
0.75 0.375 0
0.9375 0.375 0
0.75 0.421875 0
0.9375 0.421875 0
0.9375 0.375 0
1.125 0.375 0
0.9375 0.421875 0
1.125 0.421875 0
0.75 0.421875 0
0.9375 0.421875 0
0.75 0.46875 0
0.9375 0.46875 0
0.9375 0.421875 0
1.125 0.421875 0
0.9375 0.46875 0
1.125 0.46875 0
1.125 0.375 0
1.3125 0.375 0
1.125 0.421875 0
1.3125 0.421875 0
1.3125 0.375 0
1.5 0.375 0
1.3125 0.421875 0
1.5 0.421875 0
1.125 0.421875 0
1.3125 0.421875 0
1.125 0.46875 0
1.3125 0.46875 0
1.3125 0.421875 0
1.5 0.421875 0
1.3125 0.46875 0
1.5 0.46875 0
0.75 0.46875 0
0.9375 0.46875 0
0.75 0.515625 0
0.9375 0.515625 0
0.9375 0.46875 0
1.125 0.46875 0
0.9375 0.515625 0
1.125 0.515625 0
0.75 0.515625 0
0.9375 0.515625 0
[...]
POINT_DATA 16384
SCALARS x_displacement double 1
LOOKUP_TABLE default
0 0.0340391 0 0.0303831 0.0340391 0.0601482 0.0303831 0.0583871 0 0.0303831 0 0.0278776 0.0303831 0.0583871 0.0278776 0.0555374 0.0601482 0.0767993 0.0583871 0.0754016 0.0767993 0.0838263 0.0754016 0.0829282 0.0583871 0.0754016 0.0555374 0.0733292 0.0754016 0.0829282 0.0733292 0.0815973 0 0.0278776 0 0.0258282 0.0278776 0.0555374 0.0258282 0.0519078 0 0.0258282 0 0.0241125 0.0258282 0.0519078 0.0241125 0.0482347 0.0555374 0.0733292 0.0519078 0.0704786 0.0733292 0.0815973 0.0704786 0.0798718 0.0519078 0.0704786 0.0482347 0.0667014 0.0704786 0.0798718 0.0667014 0.0778824 0.0838263 0.0905819 0.0829282 0.0901553 0.0905819 0.0980191 0.0901553 0.097946 0.0829282 0.0901553 0.0815973 0.0894989 0.0901553 0.097946 0.0894989 0.0976968 0.0980191 0.105652 0.097946 0.105737 0.105652 0.113086 0.105737 0.113253 0.097946 0.105737 0.0976968 0.105699 0.105737 0.113253 0.105699 0.113325 0.0815973 0.0894989 0.0798718 0.0886526 0.0894989 0.0976968 0.0886526 0.0972995 0.0798718 0.0886526 0.0778824 0.0876628 0.0886526 0.0972995 0.0876628 0.0967755 0.0976968 0.105699 0.0972995 0.105547 0.105699 0.113325 0.105547 0.113309 0.0972995 0.105547 0.0967755 0.105296 0.105547 0.113309 0.105296 0.113214 0 0.0241125 0 0.0226636 0.0241125 0.0482347 0.0226636 0.0448059 0 0.0226636 0 0.0213933 0.0226636 0.0448059 0.0213933 0.042086 0.0482347 0.0667014 0.0448059 0.0628773 0.0667014 0.0778824 0.0628773 0.0758639 0.0448059 0.0628773 0.042086 0.05981 0.0628773 0.0758639 0.05981 0.0738517 0 0.0213933 0 0.020324 0.0213933 0.042086 0.020324 0.0399268 0 0.020324 0 0.0194436 0.020324 0.0399268 0.0194436 0.0382044 0.042086 0.05981 0.0399268 0.057354 0.05981 0.0738517 0.057354 0.071972 0.0399268 0.057354 0.0382044 0.055346 0.057354 0.071972 0.055346 0.0702731 0.0778824 0.0876628 0.0758639 0.0865521 0.0876628 0.0967755 0.0865521 0.0961524 0.0758639 0.0865521 0.0738517 0.0853771 0.0865521 0.0961524 0.0853771 0.0954514 0.0967755 0.105296 0.0961524 0.104957 0.105296 0.113214 0.104957 0.113046 0.0961524 0.104957 0.0954514 0.104546 0.104957 0.113046 0.104546 0.112815 0.0738517 0.0853771 0.071972 0.0841708 0.0853771 0.0954514 0.0841708 0.0946963 0.071972 0.0841708 0.0702731 0.082974 0.0841708 0.0946963 0.082974 0.0939062 0.0954514 0.104546 0.0946963 0.104076 0.104546 0.112815 0.104076 0.112528 0.0946963 0.104076 0.0939062 0.103559 0.104076 0.112528 0.103559 0.112194 0.113086 0.120138 0.113253 0.12034 0.120138 0.126714 0.12034 0.126922 0.113253 0.12034 0.113325 0.120468 0.12034 0.126922 0.120468 0.127071 0.126714 0.132768 0.126922 0.132963 0.132768 0.138283 0.132963 0.138452 0.126922 0.132963 0.127071 0.133111 0.132963 0.138452 0.133111 0.138583 0.113325 0.120468 0.113309 0.120526 0.120468 0.127071 0.120526 0.127164 0.113309 0.120526 0.113214 0.120519 0.120526 0.127164 0.120519 0.127203 0.127071 0.133111 0.127164 0.133212 0.133111 0.138583 0.133212 0.138677 0.127164 0.133212 0.127203 0.13327 0.133212 0.138677 0.13327 0.138735 0.138283 0.14326 0.138452 0.143395 0.14326 0.147714 0.143395 0.14781 0.138452 0.143395 0.138583 0.1435 0.143395 0.14781 0.1435 0.147882 0.147714 0.151667 0.14781 0.151722 0.151667 0.155149 0.151722 0.155164 0.14781 0.151722 0.147882 0.151759 0.151722 0.155164 0.151759 0.155164 0.138583 0.1435 0.138677 0.143574 0.1435 0.147882 0.143574 0.14793 0.138677 0.143574 0.138735 0.14362 0.143574 0.14793 0.14362 0.147955 0.147882 0.151759 0.14793 0.151777 0.151759 0.155164 0.151777 0.155149 0.14793 0.151777 0.147955 0.151776 0.151777 0.155149 0.151776 0.15512 0.113214 0.120519 0.113046 0.120452 0.120519 0.127203 0.120452 0.127193 0.113046 0.120452 0.112815 0.120331 0.120452 0.127193 0.120331 0.127136 0.127203 0.13327 0.127193 0.133287 0.13327 0.138735 0.133287 0.138759 0.127193 0.133287 0.127136 0.133265 0.133287 0.138759 0.133265 0.13875 0.112815 0.120331 0.112528 0.12016 0.120331 0.127136 0.12016 0.127037 0.112528 0.12016 0.112194 0.119946 0.12016 0.127037 0.119946 0.1269 0.127136 0.133265 0.127037 0.133207 0.133265 0.13875 0.133207 0.138711 0.127037 0.133207 0.1269 0.133115 0.133207 0.138711 0.133115 0.138643 0.138735 0.14362 0.138759 0.143638 0.14362 0.147955 0.143638 0.147958 0.138759 0.143638 0.13875 0.143628 0.143638 0.147958 0.143628 0.147938 0.147955 0.151776 0.147958 0.151757 0.151776 0.15512 0.151757 0.155076 0.147958 0.151757 0.147938 0.15172 0.151757 0.155076 0.15172 0.155017 0.13875 0.143628 0.138711 0.143593 0.143628 0.147938 0.143593 0.147896 0.138711 0.143593 0.138643 0.143534 0.143593 0.147896 0.143534 0.147834 0.147938 0.15172 0.147896 0.151665 0.15172 0.155017 0.151665 0.154944 0.147896 0.151665 0.147834 0.151593 0.151665 0.154944 0.151593 0.154857 0 0.0194436 0 0.0187268 0.0194436 0.0382044 0.0187268 0.0368213 0 0.0187268 0 0.0181451 0.0187268 0.0368213 0.0181451 0.0357031 0.0382044 0.055346 0.0368213 0.0536843 0.055346 0.0702731 0.0536843 0.0687585 0.0368213 0.0536843 0.0357031 0.0522978 0.0536843 0.0687585 0.0522978 0.0674169 0 0.0181451 0 0.0176729 0.0181451 0.0357031 0.0176729 0.034793 0 0.0176729 0 0.017288 0.0176729 0.034793 0.017288 0.0340469 0.0357031 0.0522978 0.034793 0.0511334 0.0522978 0.0674169 0.0511334 0.066232 0.034793 0.0511334 0.0340469 0.0501501 0.0511334 0.066232 0.0501501 0.0651867 0.0702731 0.082974 0.0687585 0.0818187 0.082974 0.0939062 0.0818187 0.0930993 0.0687585 0.0818187 0.0674169 0.0807243 0.0818187 0.0930993 0.0807243 0.092292 0.0939062 0.103559 0.0930993 0.103009 0.103559 0.112194 0.103009 0.111822 0.0930993 0.103009 0.092292 0.102435 0.103009 0.111822 0.102435 0.111418 0.0674169 0.0807243 0.066232 0.079701 0.0807243 0.092292 0.079701 0.0914978 0.066232 0.079701 0.0651867 0.0787524 0.079701 0.0914978 0.0787524 0.0907266 0.092292 0.102435 0.0914978 0.101847 0.102435 0.111418 0.101847 0.110989 0.0914978 0.101847 0.0907266 0.101255 0.101847 0.110989 0.101255 0.110544 0 0.017288 0 0.0169725 0.017288 0.0340469 0.0169725 0.0334311 0 0.0169725 0 0.0167123 0.0169725 0.0334311 0.0167123 0.0329191 0.0340469 0.0501501 0.0334311 0.0493153 0.0501501 0.0651867 0.0493153 0.0642642 0.0334311 0.0493153 0.0329191 0.0486029 0.0493153 0.0642642 0.0486029 0.0634495 0 0.0167123 0 0.0164959 0.0167123 0.0329191 0.0164959 0.03249 0 0.0164959 0 0.0163146 0.0164959 0.03249 0.0163146 0.0321278 0.0329191 0.0486029 0.03249 0.0479917 0.0486029 0.0634495 0.0479917 0.0627286 0.03249 0.0479917 0.0321278 0.0474646 0.0479917 0.0627286 0.0474646 0.0620894 0.0651867 0.0787524 0.0642642 0.0778784 0.0787524 0.0907266 0.0778784 0.0899855 0.0642642 0.0778784 0.0634495 0.077076 0.0778784 0.0899855 0.077076 0.0892787 0.0907266 0.101255 0.0899855 0.100664 0.101255 0.110544 0.100664 0.110086 0.0899855 0.100664 0.0892787 0.100082 0.100664 0.110086 0.100082 0.109622 0.0634495 0.077076 0.0627286 0.0763414 0.077076 0.0892787 0.0763414 0.0886088 0.0627286 0.0763414 0.0620894 0.0756697 0.0763414 0.0886088 0.0756697 0.0879767 0.0892787 0.100082 0.0886088 0.0995133 0.100082 0.109622 0.0995133 0.109155 0.0886088 0.0995133 0.0879767 0.0989603 0.0995133 0.109155 0.0989603 0.108691 0.112194 0.119946 0.111822 0.119695 0.119946 0.1269 0.119695 0.126727 0.111822 0.119695 0.111418 0.11941 0.119695 0.126727 0.11941 0.126524 0.1269 0.133115 0.126727 0.132992 0.133115 0.138643 0.132992 0.138548 0.126727 0.132992 0.126524 0.132841 0.132992 0.138548 0.132841 0.138428 0.111418 0.11941 0.110989 0.119098 0.11941 0.126524 0.119098 0.126293 0.110989 0.119098 0.110544 0.118763 0.119098 0.126293 0.118763 0.126037 0.126524 0.132841 0.126293 0.132663 0.132841 0.138428 0.132663 0.138284 0.126293 0.132663 0.126037 0.132463 0.132663 0.138284 0.132463 0.138119 0.138643 0.143534 0.138548 0.143451 0.143534 0.147834 0.143451 0.147752 0.138548 0.143451 0.138428 0.143346 0.143451 0.147752 0.143346 0.147651 0.147834 0.151593 0.147752 0.151504 0.151593 0.154857 0.151504 0.154756 0.147752 0.151504 0.147651 0.151398 0.151504 0.154756 0.151398 0.15464 0.138428 0.143346 0.138284 0.14322 0.143346 0.147651 0.14322 0.147532 0.138284 0.14322 0.138119 0.143075 0.14322 0.147532 0.143075 0.147395 0.147651 0.151398 0.147532 0.151277 0.151398 0.15464 0.151277 0.154512 0.147532 0.151277 0.147395 0.151141 0.151277 0.154512 0.151141 0.15437 0.110544 0.118763 0.110086 0.11841 0.118763 0.126037 0.11841 0.125762 0.110086 0.11841 0.109622 0.118043 0.11841 0.125762 0.118043 0.125468 0.126037 0.132463 0.125762 0.132241 0.132463 0.138119 0.132241 0.137933 0.125762 0.132241 0.125468 0.132002 0.132241 0.137933 0.132002 0.13773 0.109622 0.118043 0.109155 0.117665 0.118043 0.125468 0.117665 0.125161 0.109155 0.117665 0.108691 0.11728 0.117665 0.125161 0.11728 0.124841 0.125468 0.132002 0.125161 0.131746 0.132002 0.13773 0.131746 0.137511 0.125161 0.131746 0.124841 0.131476 0.131746 0.137511 0.131476 0.137277 0.138119 0.143075 0.137933 0.142911 0.143075 0.147395 0.142911 0.147242 0.137933 0.142911 0.13773 0.142731 0.142911 0.147242 0.142731 0.147074 0.147395 0.151141 0.147242 0.150991 0.151141 0.15437 0.150991 0.154216 0.147242 0.150991 0.147074 0.150826 0.150991 0.154216 0.150826 0.154049 0.13773 0.142731 0.137511 0.142535 0.142731 0.147074 0.142535 0.146891 0.137511 0.142535 0.137277 0.142324 0.142535 0.146891 0.142324 0.146694 0.147074 0.150826 0.146891 0.150648 0.150826 0.154049 0.150648 0.153871 0.146891 0.150648 0.146694 0.150458 0.150648 0.153871 0.150458 0.15368 0.155149 0.158194 0.155164 0.158169 0.158194 0.160838 0.158169 0.160776 0.155164 0.158169 0.155164 0.158133 0.158169 0.160776 0.158133 0.160705 0.160838 0.163119 0.160776 0.163021 0.163119 0.165073 0.163021 0.164943 0.160776 0.163021 0.160705 0.162917 0.163021 0.164943 0.162917 0.164808 0.155164 0.158133 0.155149 0.158086 0.158133 0.160705 0.158086 0.160625 0.155149 0.158086 0.15512 0.158027 0.158086 0.160625 0.158027 0.160537 0.160705 0.162917 0.160625 0.162807 0.162917 0.164808 0.162807 0.164669 0.160625 0.162807 0.160537 0.16269 0.162807 0.164669 0.16269 0.164525 0.165073 0.166737 0.164943 0.166577 0.166737 0.168144 0.166577 0.167958 0.164943 0.166577 0.164808 0.166414 0.166577 0.167958 0.166414 0.16777 0.168144 0.169327 0.167958 0.169117 0.169327 0.170315 0.169117 0.170084 0.167958 0.169117 0.16777 0.168906 0.169117 0.170084 0.168906 0.169854 0.164808 0.166414 0.164669 0.166249 0.166414 0.16777 0.166249 0.16758 0.164669 0.166249 0.164525 0.166079 0.166249 0.16758 0.166079 0.167387 0.16777 0.168906 0.16758 0.168695 0.168906 0.169854 0.168695 0.169623 0.16758 0.168695 0.167387 0.168482 0.168695 0.169623 0.168482 0.169391 0.15512 0.158027 0.155076 0.157956 0.158027 0.160537 0.157956 0.160439 0.155076 0.157956 0.155017 0.157874 0.157956 0.160439 0.157874 0.160332 0.160537 0.16269 0.160439 0.162566 0.16269 0.164525 0.162566 0.164376 0.160439 0.162566 0.160332 0.162435 0.162566 0.164376 0.162435 0.164221 0.155017 0.157874 0.154944 0.15778 0.157874 0.160332 0.15778 0.160216 0.154944 0.15778 0.154857 0.157674 0.15778 0.160216 0.157674 0.160091 0.160332 0.162435 0.160216 0.162296 0.162435 0.164221 0.162296 0.16406 0.160216 0.162296 0.160091 0.16215 0.162296 0.16406 0.16215 0.163893 0.164525 0.166079 0.164376 0.165906 0.166079 0.167387 0.165906 0.167193 0.164376 0.165906 0.164221 0.165729 0.165906 0.167193 0.165729 0.166994 0.167387 0.168482 0.167193 0.168267 0.168482 0.169391 0.168267 0.169159 0.167193 0.168267 0.166994 0.16805 0.168267 0.169159 0.16805 0.168925 0.164221 0.165729 0.16406 0.165547 0.165729 0.166994 0.165547 0.166793 0.16406 0.165547 0.163893 0.165361 0.165547 0.166793 0.165361 0.166588 0.166994 0.16805 0.166793 0.16783 0.16805 0.168925 0.16783 0.168689 0.166793 0.16783 0.166588 0.167608 0.16783 0.168689 0.167608 0.168451 0.170315 0.171135 0.170084 0.170887 0.171135 0.171812 0.170887 0.171549 0.170084 0.170887 0.169854 0.170639 0.170887 0.171549 0.170639 0.171286 0.171812 0.172368 0.171549 0.172091 0.172368 0.172821 0.172091 0.172533 0.171549 0.172091 0.171286 0.171815 0.172091 0.172533 0.171815 0.172246 0.169854 0.170639 0.169623 0.170391 0.170639 0.171286 0.170391 0.171023 0.169623 0.170391 0.169391 0.170143 0.170391 0.171023 0.170143 0.170761 0.171286 0.171815 0.171023 0.17154 0.171815 0.172246 0.17154 0.17196 0.171023 0.17154 0.170761 0.171265 0.17154 0.17196 0.171265 0.171675 0.172821 0.173189 0.172533 0.172891 0.173189 0.173485 0.172891 0.17318 0.172533 0.172891 0.172246 0.172595 0.172891 0.17318 0.172595 0.172876 0.173485 0.173723 0.17318 0.173411 0.173723 0.173912 0.173411 0.173595 0.17318 0.173411 0.172876 0.173101 0.173411 0.173595 0.173101 0.17328 0.172246 0.172595 0.17196 0.1723 0.172595 0.172876 0.1723 0.172573 0.17196 0.1723 0.171675 0.172005 0.1723 0.172573 0.172005 0.172271 0.172876 0.173101 0.172573 0.172791 0.173101 0.17328 0.172791 0.172965 0.172573 0.172791 0.172271 0.172483 0.172791 0.172965 0.172483 0.172651 0.169391 0.170143 0.169159 0.169895 0.170143 0.170761 0.169895 0.170498 0.169159 0.169895 0.168925 0.169645 0.169895 0.170498 0.169645 0.170235 0.170761 0.171265 0.170498 0.17099 0.171265 0.171675 0.17099 0.171389 0.170498 0.17099 0.170235 0.170716 0.17099 0.171389 0.170716 0.171104 0.168925 0.169645 0.168689 0.169394 0.169645 0.170235 0.169394 0.169971 0.168689 0.169394 0.168451 0.169142 0.169394 0.169971 0.169142 0.169707 0.170235 0.170716 0.169971 0.17044 0.170716 0.171104 0.17044 0.170819 0.169971 0.17044 0.169707 0.170164 0.17044 0.170819 0.170164 0.170533 0.171675 0.172005 0.171389 0.171711 0.172005 0.172271 0.171711 0.171969 0.171389 0.171711 0.171104 0.171417 0.171711 0.171969 0.171417 0.171667 0.172271 0.172483 0.171969 0.172174 0.172483 0.172651 0.172174 0.172337 0.171969 0.172174 0.171667 0.171866 0.172174 0.172337 0.171866 0.172024 0.171104 0.171417 0.170819 0.171123 0.171417 0.171667 0.171123 0.171366 0.170819 0.171123 0.170533 0.170829 0.171123 0.171366 0.170829 0.171065 0.171667 0.171866 0.171366 0.171559 0.171866 0.172024 0.171559 0.171711 0.171366 0.171559 0.171065 0.171251 0.171559 0.171711 0.171251 0.171398 0.154857 0.157674 0.154756 0.157557 0.157674 0.160091 0.157557 0.159955 0.154756 0.157557 0.15464 0.157428 0.157557 0.159955 0.157428 0.159811 0.160091 0.16215 0.159955 0.161996 0.16215 0.163893 0.161996 0.16372 0.159955 0.161996 0.159811 0.161834 0.161996 0.16372 0.161834 0.163541 0.15464 0.157428 0.154512 0.157288 0.157428 0.159811 0.157288 0.159656 0.154512 0.157288 0.15437 0.157137 0.157288 0.159656 0.157137 0.159492 0.159811 0.161834 0.159656 0.161664 0.161834 0.163541 0.161664 0.163355 0.159656 0.161664 0.159492 0.161486 0.161664 0.163355 0.161486 0.163163 0.163893 0.165361 0.16372 0.16517 0.165361 0.166588 0.16517 0.166379 0.16372 0.16517 0.163541 0.164973 0.16517 0.166379 0.164973 0.166166 0.166588 0.167608 0.166379 0.167383 0.167608 0.168451 0.167383 0.16821 0.166379 0.167383 0.166166 0.167154 0.167383 0.16821 0.167154 0.167968 0.163541 0.164973 0.163355 0.164771 0.164973 0.166166 0.164771 0.165949 0.163355 0.164771 0.163163 0.164564 0.164771 0.165949 0.164564 0.165727 0.166166 0.167154 0.165949 0.166922 0.167154 0.167968 0.166922 0.167722 0.165949 0.166922 0.165727 0.166687 0.166922 0.167722 0.166687 0.167474 0.15437 0.157137 0.154216 0.156974 0.157137 0.159492 0.156974 0.159319 0.154216 0.156974 0.154049 0.156801 0.156974 0.159319 0.156801 0.159137 0.159492 0.161486 0.159319 0.1613 0.161486 0.163163 0.1613 0.162963 0.159319 0.1613 0.159137 0.161106 0.1613 0.162963 0.161106 0.162757 0.154049 0.156801 0.153871 0.156617 0.156801 0.159137 0.156617 0.158945 0.153871 0.156617 0.15368 0.156423 0.156617 0.158945 0.156423 0.158744 0.159137 0.161106 0.158945 0.160904 0.161106 0.162757 0.160904 0.162544 0.158945 0.160904 0.158744 0.160694 0.160904 0.162544 0.160694 0.162324 0.163163 0.164564 0.162963 0.164351 0.164564 0.165727 0.164351 0.1655 0.162963 0.164351 0.162757 0.164132 0.164351 0.1655 0.164132 0.165269 0.165727 0.166687 0.1655 0.166447 0.166687 0.167474 0.166447 0.167222 0.1655 0.166447 0.165269 0.166204 0.166447 0.167222 0.166204 0.166967 0.162757 0.164132 0.162544 0.163907 0.164132 0.165269 0.163907 0.165033 0.162544 0.163907 0.162324 0.163676 0.163907 0.165033 0.163676 0.164791 0.165269 0.166204 0.165033 0.165956 0.166204 0.166967 0.165956 0.166709 0.165033 0.165956 0.164791 0.165704 0.165956 0.166709 0.165704 0.166447 0.168451 0.169142 0.16821 0.168888 0.169142 0.169707 0.168888 0.169441 0.16821 0.168888 0.167968 0.168633 0.168888 0.169441 0.168633 0.169173 0.169707 0.170164 0.169441 0.169887 0.170164 0.170533 0.169887 0.170247 0.169441 0.169887 0.169173 0.16961 0.169887 0.170247 0.16961 0.16996 0.167968 0.168633 0.167722 0.168375 0.168633 0.169173 0.168375 0.168904 0.167722 0.168375 0.167474 0.168114 0.168375 0.168904 0.168114 0.168633 0.169173 0.16961 0.168904 0.169331 0.16961 0.16996 0.169331 0.169672 0.168904 0.169331 0.168633 0.16905 0.169331 0.169672 0.16905 0.169383 0.170533 0.170829 0.170247 0.170535 0.170829 0.171065 0.170535 0.170763 0.170247 0.170535 0.16996 0.17024 0.170535 0.170763 0.17024 0.170461 0.171065 0.171251 0.170763 0.170944 0.171251 0.171398 0.170944 0.171086 0.170763 0.170944 0.170461 0.170636 0.170944 0.171086 0.170636 0.170773 0.16996 0.17024 0.169672 0.169944 0.17024 0.170461 0.169944 0.170159 0.169672 0.169944 0.169383 0.169648 0.169944 0.170159 0.169648 0.169856 0.170461 0.170636 0.170159 0.170328 0.170636 0.170773 0.170328 0.17046 0.170159 0.170328 0.169856 0.170019 0.170328 0.17046 0.170019 0.170147 0.167474 0.168114 0.167222 0.167852 0.168114 0.168633 0.167852 0.16836 0.167222 0.167852 0.166967 0.167586 0.167852 0.16836 0.167586 0.168085 0.168633 0.16905 0.16836 0.168768 0.16905 0.169383 0.168768 0.169093 0.16836 0.168768 0.168085 0.168484 0.168768 0.169093 0.168484 0.168801 0.166967 0.167586 0.166709 0.167318 0.167586 0.168085 0.167318 0.167807 0.166709 0.167318 0.166447 0.167046 0.167318 0.167807 0.167046 0.167527 0.168085 0.168484 0.167807 0.168198 0.168484 0.168801 0.168198 0.168508 0.167807 0.168198 0.167527 0.16791 0.168198 0.168508 0.16791 0.168213 0.169383 0.169648 0.169093 0.16935 0.169648 0.169856 0.16935 0.169552 0.169093 0.16935 0.168801 0.169052 0.16935 0.169552 0.169052 0.169248 0.169856 0.170019 0.169552 0.16971 0.170019 0.170147 0.16971 0.169833 0.169552 0.16971 0.169248 0.169401 0.16971 0.169833 0.169401 0.169519 0.168801 0.169052 0.168508 0.168752 0.169052 0.169248 0.168752 0.168942 0.168508 0.168752 0.168213 0.168451 0.168752 0.168942 0.168451 0.168636 0.169248 0.169401 0.168942 0.16909 0.169401 0.169519 0.16909 0.169204 0.168942 0.16909 0.168636 0.168779 0.16909 0.169204 0.168779 0.168889 0 0.0163146 0 0.0161614 0.0163146 0.0321278 0.0161614 0.0318195 0 0.0161614 0 0.0160308 0.0161614 0.0318195 0.0160308 0.031555 0.0321278 0.0474646 0.0318195 0.0470073 0.0474646 0.0620894 0.0470073 0.0615211 0.0318195 0.0470073 0.031555 0.0466084 0.0470073 0.0615211 0.0466084 0.0610144 0 0.0160308 0 0.0159183 0.0160308 0.031555 0.0159183 0.0313262 0 0.0159183 0 0.0158207 0.0159183 0.0313262 0.0158207 0.0311266 0.031555 0.0466084 0.0313262 0.0462584 0.0466084 0.0610144 0.0462584 0.0605612 0.0313262 0.0462584 0.0311266 0.0459494 0.0462584 0.0605612 0.0459494 0.0601542 0.0620894 0.0756697 0.0615211 0.0750558 0.0756697 0.0879767 0.0750558 0.0873822 0.0615211 0.0750558 0.0610144 0.0744946 0.0750558 0.0873822 0.0744946 0.0868243 0.0879767 0.0989603 0.0873822 0.098426 0.0989603 0.108691 0.098426 0.108231 0.0873822 0.098426 0.0868243 0.0979119 0.098426 0.108231 0.0979119 0.107778 0.0610144 0.0744946 0.0605612 0.0739812 0.0744946 0.0868243 0.0739812 0.0863017 0.0605612 0.0739812 0.0601542 0.0735111 0.0739812 0.0863017 0.0735111 0.0858127 0.0868243 0.0979119 0.0863017 0.0974188 0.0979119 0.107778 0.0974188 0.107334 0.0863017 0.0974188 0.0858127 0.0969474 0.0974188 0.107334 0.0969474 0.106901 0 0.0158207 0 0.015735 0.0158207 0.0311266 0.015735 0.0309509 0 0.015735 0 0.0156592 0.015735 0.0309509 0.0156592 0.0307951 0.0311266 0.0459494 0.0309509 0.0456749 0.0459494 0.0601542 0.0456749 0.0597876 0.0309509 0.0456749 0.0307951 0.0454296 0.0456749 0.0597876 0.0454296 0.0594559 0 0.0156592 0 0.0155914 0.0156592 0.0307951 0.0155914 0.0306557 0 0.0155914 0 0.0155302 0.0155914 0.0306557 0.0155302 0.0305