# vtk DataFile Version 3.0
#This file was generated by the deal.II library on 2022/1/6 at 23:05:04
ASCII
DATASET UNSTRUCTURED_GRID

POINTS 16384 double
0 0 0
0.1875 0 0
0 0.046875 0
0.1875 0.046875 0
0.1875 0 0
0.375 0 0
0.1875 0.046875 0
0.375 0.046875 0
0 0.046875 0
0.1875 0.046875 0
0 0.09375 0
0.1875 0.09375 0
0.1875 0.046875 0
0.375 0.046875 0
0.1875 0.09375 0
0.375 0.09375 0
0.375 0 0
0.5625 0 0
0.375 0.046875 0
0.5625 0.046875 0
0.5625 0 0
0.75 0 0
0.5625 0.046875 0
0.75 0.046875 0
0.375 0.046875 0
0.5625 0.046875 0
0.375 0.09375 0
0.5625 0.09375 0
0.5625 0.046875 0
0.75 0.046875 0
0.5625 0.09375 0
0.75 0.09375 0
0 0.09375 0
0.1875 0.09375 0
0 0.140625 0
0.1875 0.140625 0
0.1875 0.09375 0
0.375 0.09375 0
0.1875 0.140625 0
0.375 0.140625 0
0 0.140625 0
0.1875 0.140625 0
0 0.1875 0
0.1875 0.1875 0
0.1875 0.140625 0
0.375 0.140625 0
0.1875 0.1875 0
0.375 0.1875 0
0.375 0.09375 0
0.5625 0.09375 0
0.375 0.140625 0
0.5625 0.140625 0
0.5625 0.09375 0
0.75 0.09375 0
0.5625 0.140625 0
0.75 0.140625 0
0.375 0.140625 0
0.5625 0.140625 0
0.375 0.1875 0
0.5625 0.1875 0
0.5625 0.140625 0
0.75 0.140625 0
0.5625 0.1875 0
0.75 0.1875 0
0.75 0 0
0.9375 0 0
0.75 0.046875 0
0.9375 0.046875 0
0.9375 0 0
1.125 0 0
0.9375 0.046875 0
1.125 0.046875 0
0.75 0.046875 0
0.9375 0.046875 0
0.75 0.09375 0
0.9375 0.09375 0
0.9375 0.046875 0
1.125 0.046875 0
0.9375 0.09375 0
1.125 0.09375 0
1.125 0 0
1.3125 0 0
1.125 0.046875 0
1.3125 0.046875 0
1.3125 0 0
1.5 0 0
1.3125 0.046875 0
1.5 0.046875 0
1.125 0.046875 0
1.3125 0.046875 0
1.125 0.09375 0
1.3125 0.09375 0
1.3125 0.046875 0
1.5 0.046875 0
1.3125 0.09375 0
1.5 0.09375 0
0.75 0.09375 0
0.9375 0.09375 0
0.75 0.140625 0
0.9375 0.140625 0
0.9375 0.09375 0
1.125 0.09375 0
0.9375 0.140625 0
1.125 0.140625 0
0.75 0.140625 0
0.9375 0.140625 0
0.75 0.1875 0
0.9375 0.1875 0
0.9375 0.140625 0
1.125 0.140625 0
0.9375 0.1875 0
1.125 0.1875 0
1.125 0.09375 0
1.3125 0.09375 0
1.125 0.140625 0
1.3125 0.140625 0
1.3125 0.09375 0
1.5 0.09375 0
1.3125 0.140625 0
1.5 0.140625 0
1.125 0.140625 0
1.3125 0.140625 0
1.125 0.1875 0
1.3125 0.1875 0
1.3125 0.140625 0
1.5 0.140625 0
1.3125 0.1875 0
1.5 0.1875 0
0 0.1875 0
0.1875 0.1875 0
0 0.234375 0
0.1875 0.234375 0
0.1875 0.1875 0
0.375 0.1875 0
0.1875 0.234375 0
0.375 0.234375 0
0 0.234375 0
0.1875 0.234375 0
0 0.28125 0
0.1875 0.28125 0
0.1875 0.234375 0
0.375 0.234375 0
0.1875 0.28125 0
0.375 0.28125 0
0.375 0.1875 0
0.5625 0.1875 0
0.375 0.234375 0
0.5625 0.234375 0
0.5625 0.1875 0
0.75 0.1875 0
0.5625 0.234375 0
0.75 0.234375 0
0.375 0.234375 0
0.5625 0.234375 0
0.375 0.28125 0
0.5625 0.28125 0
0.5625 0.234375 0
0.75 0.234375 0
0.5625 0.28125 0
0.75 0.28125 0
0 0.28125 0
0.1875 0.28125 0
0 0.328125 0
0.1875 0.328125 0
0.1875 0.28125 0
0.375 0.28125 0
0.1875 0.328125 0
0.375 0.328125 0
0 0.328125 0
0.1875 0.328125 0
0 0.375 0
0.1875 0.375 0
0.1875 0.328125 0
0.375 0.328125 0
0.1875 0.375 0
0.375 0.375 0
0.375 0.28125 0
0.5625 0.28125 0
0.375 0.328125 0
0.5625 0.328125 0
0.5625 0.28125 0
0.75 0.28125 0
0.5625 0.328125 0
0.75 0.328125 0
0.375 0.328125 0
0.5625 0.328125 0
0.375 0.375 0
0.5625 0.375 0
0.5625 0.328125 0
0.75 0.328125 0
0.5625 0.375 0
0.75 0.375 0
0.75 0.1875 0
0.9375 0.1875 0
0.75 0.234375 0
0.9375 0.234375 0
0.9375 0.1875 0
1.125 0.1875 0
0.9375 0.234375 0
1.125 0.234375 0
0.75 0.234375 0
0.9375 0.234375 0
0.75 0.28125 0
0.9375 0.28125 0
0.9375 0.234375 0
1.125 0.234375 0
0.9375 0.28125 0
1.125 0.28125 0
1.125 0.1875 0
1.3125 0.1875 0
1.125 0.234375 0
1.3125 0.234375 0
1.3125 0.1875 0
1.5 0.1875 0
1.3125 0.234375 0
1.5 0.234375 0
1.125 0.234375 0
1.3125 0.234375 0
1.125 0.28125 0
1.3125 0.28125 0
1.3125 0.234375 0
1.5 0.234375 0
1.3125 0.28125 0
1.5 0.28125 0
0.75 0.28125 0
0.9375 0.28125 0
0.75 0.328125 0
0.9375 0.328125 0
0.9375 0.28125 0
1.125 0.28125 0
0.9375 0.328125 0
1.125 0.328125 0
0.75 0.328125 0
0.9375 0.328125 0
0.75 0.375 0
0.9375 0.375 0
0.9375 0.328125 0
1.125 0.328125 0
0.9375 0.375 0
1.125 0.375 0
1.125 0.28125 0
1.3125 0.28125 0
1.125 0.328125 0
1.3125 0.328125 0
1.3125 0.28125 0
1.5 0.28125 0
1.3125 0.328125 0
1.5 0.328125 0
1.125 0.328125 0
1.3125 0.328125 0
1.125 0.375 0
1.3125 0.375 0
1.3125 0.328125 0
1.5 0.328125 0
1.3125 0.375 0
1.5 0.375 0
1.5 0 0
1.6875 0 0
1.5 0.046875 0
1.6875 0.046875 0
1.6875 0 0
1.875 0 0
1.6875 0.046875 0
1.875 0.046875 0
1.5 0.046875 0
1.6875 0.046875 0
1.5 0.09375 0
1.6875 0.09375 0
1.6875 0.046875 0
1.875 0.046875 0
1.6875 0.09375 0
1.875 0.09375 0
1.875 0 0
2.0625 0 0
1.875 0.046875 0
2.0625 0.046875 0
2.0625 0 0
2.25 0 0
2.0625 0.046875 0
2.25 0.046875 0
1.875 0.046875 0
2.0625 0.046875 0
1.875 0.09375 0
2.0625 0.09375 0
2.0625 0.046875 0
2.25 0.046875 0
2.0625 0.09375 0
2.25 0.09375 0
1.5 0.09375 0
1.6875 0.09375 0
1.5 0.140625 0
1.6875 0.140625 0
1.6875 0.09375 0
1.875 0.09375 0
1.6875 0.140625 0
1.875 0.140625 0
1.5 0.140625 0
1.6875 0.140625 0
1.5 0.1875 0
1.6875 0.1875 0
1.6875 0.140625 0
1.875 0.140625 0
1.6875 0.1875 0
1.875 0.1875 0
1.875 0.09375 0
2.0625 0.09375 0
1.875 0.140625 0
2.0625 0.140625 0
2.0625 0.09375 0
2.25 0.09375 0
2.0625 0.140625 0
2.25 0.140625 0
1.875 0.140625 0
2.0625 0.140625 0
1.875 0.1875 0
2.0625 0.1875 0
2.0625 0.140625 0
2.25 0.140625 0
2.0625 0.1875 0
2.25 0.1875 0
2.25 0 0
2.4375 0 0
2.25 0.046875 0
2.4375 0.046875 0
2.4375 0 0
2.625 0 0
2.4375 0.046875 0
2.625 0.046875 0
2.25 0.046875 0
2.4375 0.046875 0
2.25 0.09375 0
2.4375 0.09375 0
2.4375 0.046875 0
2.625 0.046875 0
2.4375 0.09375 0
2.625 0.09375 0
2.625 0 0
2.8125 0 0
2.625 0.046875 0
2.8125 0.046875 0
2.8125 0 0
3 0 0
2.8125 0.046875 0
3 0.046875 0
2.625 0.046875 0
2.8125 0.046875 0
2.625 0.09375 0
2.8125 0.09375 0
2.8125 0.046875 0
3 0.046875 0
2.8125 0.09375 0
3 0.09375 0
2.25 0.09375 0
2.4375 0.09375 0
2.25 0.140625 0
2.4375 0.140625 0
2.4375 0.09375 0
2.625 0.09375 0
2.4375 0.140625 0
2.625 0.140625 0
2.25 0.140625 0
2.4375 0.140625 0
2.25 0.1875 0
2.4375 0.1875 0
2.4375 0.140625 0
2.625 0.140625 0
2.4375 0.1875 0
2.625 0.1875 0
2.625 0.09375 0
2.8125 0.09375 0
2.625 0.140625 0
2.8125 0.140625 0
2.8125 0.09375 0
3 0.09375 0
2.8125 0.140625 0
3 0.140625 0
2.625 0.140625 0
2.8125 0.140625 0
2.625 0.1875 0
2.8125 0.1875 0
2.8125 0.140625 0
3 0.140625 0
2.8125 0.1875 0
3 0.1875 0
1.5 0.1875 0
1.6875 0.1875 0
1.5 0.234375 0
1.6875 0.234375 0
1.6875 0.1875 0
1.875 0.1875 0
1.6875 0.234375 0
1.875 0.234375 0
1.5 0.234375 0
1.6875 0.234375 0
1.5 0.28125 0
1.6875 0.28125 0
1.6875 0.234375 0
1.875 0.234375 0
1.6875 0.28125 0
1.875 0.28125 0
1.875 0.1875 0
2.0625 0.1875 0
1.875 0.234375 0
2.0625 0.234375 0
2.0625 0.1875 0
2.25 0.1875 0
2.0625 0.234375 0
2.25 0.234375 0
1.875 0.234375 0
2.0625 0.234375 0
1.875 0.28125 0
2.0625 0.28125 0
2.0625 0.234375 0
2.25 0.234375 0
2.0625 0.28125 0
2.25 0.28125 0
1.5 0.28125 0
1.6875 0.28125 0
1.5 0.328125 0
1.6875 0.328125 0
1.6875 0.28125 0
1.875 0.28125 0
1.6875 0.328125 0
1.875 0.328125 0
1.5 0.328125 0
1.6875 0.328125 0
1.5 0.375 0
1.6875 0.375 0
1.6875 0.328125 0
1.875 0.328125 0
1.6875 0.375 0
1.875 0.375 0
1.875 0.28125 0
2.0625 0.28125 0
1.875 0.328125 0
2.0625 0.328125 0
2.0625 0.28125 0
2.25 0.28125 0
2.0625 0.328125 0
2.25 0.328125 0
1.875 0.328125 0
2.0625 0.328125 0
1.875 0.375 0
2.0625 0.375 0
2.0625 0.328125 0
2.25 0.328125 0
2.0625 0.375 0
2.25 0.375 0
2.25 0.1875 0
2.4375 0.1875 0
2.25 0.234375 0
2.4375 0.234375 0
2.4375 0.1875 0
2.625 0.1875 0
2.4375 0.234375 0
2.625 0.234375 0
2.25 0.234375 0
2.4375 0.234375 0
2.25 0.28125 0
2.4375 0.28125 0
2.4375 0.234375 0
2.625 0.234375 0
2.4375 0.28125 0
2.625 0.28125 0
2.625 0.1875 0
2.8125 0.1875 0
2.625 0.234375 0
2.8125 0.234375 0
2.8125 0.1875 0
3 0.1875 0
2.8125 0.234375 0
3 0.234375 0
2.625 0.234375 0
2.8125 0.234375 0
2.625 0.28125 0
2.8125 0.28125 0
2.8125 0.234375 0
3 0.234375 0
2.8125 0.28125 0
3 0.28125 0
2.25 0.28125 0
2.4375 0.28125 0
2.25 0.328125 0
2.4375 0.328125 0
2.4375 0.28125 0
2.625 0.28125 0
2.4375 0.328125 0
2.625 0.328125 0
2.25 0.328125 0
2.4375 0.328125 0
2.25 0.375 0
2.4375 0.375 0
2.4375 0.328125 0
2.625 0.328125 0
2.4375 0.375 0
2.625 0.375 0
2.625 0.28125 0
2.8125 0.28125 0
2.625 0.328125 0
2.8125 0.328125 0
2.8125 0.28125 0
3 0.28125 0
2.8125 0.328125 0
3 0.328125 0
2.625 0.328125 0
2.8125 0.328125 0
2.625 0.375 0
2.8125 0.375 0
2.8125 0.328125 0
3 0.328125 0
2.8125 0.375 0
3 0.375 0
0 0.375 0
0.1875 0.375 0
0 0.421875 0
0.1875 0.421875 0
0.1875 0.375 0
0.375 0.375 0
0.1875 0.421875 0
0.375 0.421875 0
0 0.421875 0
0.1875 0.421875 0
0 0.46875 0
0.1875 0.46875 0
0.1875 0.421875 0
0.375 0.421875 0
0.1875 0.46875 0
0.375 0.46875 0
0.375 0.375 0
0.5625 0.375 0
0.375 0.421875 0
0.5625 0.421875 0
0.5625 0.375 0
0.75 0.375 0
0.5625 0.421875 0
0.75 0.421875 0
0.375 0.421875 0
0.5625 0.421875 0
0.375 0.46875 0
0.5625 0.46875 0
0.5625 0.421875 0
0.75 0.421875 0
0.5625 0.46875 0
0.75 0.46875 0
0 0.46875 0
0.1875 0.46875 0
0 0.515625 0
0.1875 0.515625 0
0.1875 0.46875 0
0.375 0.46875 0
0.1875 0.515625 0
0.375 0.515625 0
0 0.515625 0
0.1875 0.515625 0
0 0.5625 0
0.1875 0.5625 0
0.1875 0.515625 0
0.375 0.515625 0
0.1875 0.5625 0
0.375 0.5625 0
0.375 0.46875 0
0.5625 0.46875 0
0.375 0.515625 0
0.5625 0.515625 0
0.5625 0.46875 0
0.75 0.46875 0
0.5625 0.515625 0
0.75 0.515625 0
0.375 0.515625 0
0.5625 0.515625 0
0.375 0.5625 0
0.5625 0.5625 0
0.5625 0.515625 0
0.75 0.515625 0
0.5625 0.5625 0
0.75 0.5625 0
0.75 0.375 0
0.9375 0.375 0
0.75 0.421875 0
0.9375 0.421875 0
0.9375 0.375 0
1.125 0.375 0
0.9375 0.421875 0
1.125 0.421875 0
0.75 0.421875 0
0.9375 0.421875 0
0.75 0.46875 0
0.9375 0.46875 0
0.9375 0.421875 0
1.125 0.421875 0
0.9375 0.46875 0
1.125 0.46875 0
1.125 0.375 0
1.3125 0.375 0
1.125 0.421875 0
1.3125 0.421875 0
1.3125 0.375 0
1.5 0.375 0
1.3125 0.421875 0
1.5 0.421875 0
1.125 0.421875 0
1.3125 0.421875 0
1.125 0.46875 0
1.3125 0.46875 0
1.3125 0.421875 0
1.5 0.421875 0
1.3125 0.46875 0
1.5 0.46875 0
0.75 0.46875 0
0.9375 0.46875 0
0.75 0.515625 0
0.9375 0.515625 0
0.9375 0.46875 0
1.125 0.46875 0
0.9375 0.515625 0
1.125 0.515625 0
0.75 0.515625 0
0.9375 0.515625 0
[...]
POINT_DATA 16384
SCALARS x_displacement double 1
LOOKUP_TABLE default
0 0.0340541 0 0.0303947 0.0340541 0.060178 0.0303947 0.0584136 0 0.0303947 0 0.027887 0.0303947 0.0584136 0.027887 0.055561 0.060178 0.0768473 0.0584136 0.0754462 0.0768473 0.0838962 0.0754462 0.0829948 0.0584136 0.0754462 0.055561 0.0733708 0.0754462 0.0829948 0.0733708 0.081661 0 0.027887 0 0.025836 0.027887 0.055561 0.025836 0.0519289 0 0.025836 0 0.0241191 0.025836 0.0519289 0.0241191 0.0482538 0.055561 0.0733708 0.0519289 0.0705176 0.0733708 0.081661 0.0705176 0.0799329 0.0519289 0.0705176 0.0482538 0.066738 0.0705176 0.0799329 0.066738 0.0779411 0.0838962 0.0906774 0.0829948 0.0902478 0.0906774 0.0981437 0.0902478 0.0980679 0.0829948 0.0902478 0.081661 0.0895886 0.0902478 0.0980679 0.0895886 0.0978162 0.0981437 0.105809 0.0980679 0.105892 0.105809 0.113278 0.105892 0.113443 0.0980679 0.105892 0.0978162 0.105852 0.105892 0.113443 0.105852 0.113513 0.081661 0.0895886 0.0799329 0.0887398 0.0895886 0.0978162 0.0887398 0.0974166 0.0799329 0.0887398 0.0779411 0.0877477 0.0887398 0.0974166 0.0877477 0.0968905 0.0978162 0.105852 0.0974166 0.105698 0.105852 0.113513 0.105698 0.113496 0.0974166 0.105698 0.0968905 0.105444 0.105698 0.113496 0.105444 0.113399 0 0.0241191 0 0.0226693 0.0241191 0.0482538 0.0226693 0.0448234 0 0.0226693 0 0.0213982 0.0226693 0.0448234 0.0213982 0.0421021 0.0482538 0.066738 0.0448234 0.0629119 0.066738 0.0779411 0.0629119 0.0759204 0.0448234 0.0629119 0.0421021 0.0598428 0.0629119 0.0759204 0.0598428 0.0739062 0 0.0213982 0 0.0203283 0.0213982 0.0421021 0.0203283 0.0399417 0 0.0203283 0 0.0194474 0.0203283 0.0399417 0.0194474 0.0382183 0.0421021 0.0598428 0.0399417 0.0573853 0.0598428 0.0739062 0.0573853 0.0720249 0.0399417 0.0573853 0.0382183 0.0553759 0.0573853 0.0720249 0.0553759 0.0703244 0.0779411 0.0877477 0.0759204 0.0866349 0.0877477 0.0968905 0.0866349 0.0962655 0.0759204 0.0866349 0.0739062 0.085458 0.0866349 0.0962655 0.085458 0.0955627 0.0968905 0.105444 0.0962655 0.105104 0.105444 0.113399 0.105104 0.11323 0.0962655 0.105104 0.0955627 0.104692 0.105104 0.11323 0.104692 0.112997 0.0739062 0.085458 0.0720249 0.08425 0.085458 0.0955627 0.08425 0.094806 0.0720249 0.08425 0.0703244 0.0830516 0.08425 0.094806 0.0830516 0.0940144 0.0955627 0.104692 0.094806 0.10422 0.104692 0.112997 0.10422 0.112709 0.094806 0.10422 0.0940144 0.103702 0.10422 0.112709 0.103702 0.112374 0.113278 0.120367 0.113443 0.120568 0.120367 0.126982 0.120568 0.127189 0.113443 0.120568 0.113513 0.120694 0.120568 0.127189 0.120694 0.127337 0.126982 0.133076 0.127189 0.133271 0.133076 0.138632 0.133271 0.138801 0.127189 0.133271 0.127337 0.133417 0.133271 0.138801 0.133417 0.138931 0.113513 0.120694 0.113496 0.120751 0.120694 0.127337 0.120751 0.127429 0.113496 0.120751 0.113399 0.120743 0.120751 0.127429 0.120743 0.127467 0.127337 0.133417 0.127429 0.133519 0.133417 0.138931 0.133519 0.139025 0.127429 0.133519 0.127467 0.133576 0.133519 0.139025 0.133576 0.139083 0.138632 0.143649 0.138801 0.143785 0.143649 0.148143 0.143785 0.14824 0.138801 0.143785 0.138931 0.143889 0.143785 0.14824 0.143889 0.148312 0.148143 0.152135 0.14824 0.152191 0.152135 0.155655 0.152191 0.155671 0.14824 0.152191 0.148312 0.152229 0.152191 0.155671 0.152229 0.155672 0.138931 0.143889 0.139025 0.143964 0.143889 0.148312 0.143964 0.148361 0.139025 0.143964 0.139083 0.14401 0.143964 0.148361 0.14401 0.148387 0.148312 0.152229 0.148361 0.152248 0.152229 0.155672 0.152248 0.155659 0.148361 0.152248 0.148387 0.152248 0.152248 0.155659 0.152248 0.15563 0.113399 0.120743 0.11323 0.120675 0.120743 0.127467 0.120675 0.127456 0.11323 0.120675 0.112997 0.120552 0.120675 0.127456 0.120552 0.127399 0.127467 0.133576 0.127456 0.133593 0.133576 0.139083 0.133593 0.139107 0.127456 0.133593 0.127399 0.13357 0.133593 0.139107 0.13357 0.139098 0.112997 0.120552 0.112709 0.120381 0.120552 0.127399 0.120381 0.127299 0.112709 0.120381 0.112374 0.120166 0.120381 0.127299 0.120166 0.127161 0.127399 0.13357 0.127299 0.133511 0.13357 0.139098 0.133511 0.139059 0.127299 0.133511 0.127161 0.133419 0.133511 0.139059 0.133419 0.138991 0.139083 0.14401 0.139107 0.144028 0.14401 0.148387 0.144028 0.148389 0.139107 0.144028 0.139098 0.144019 0.144028 0.148389 0.144019 0.14837 0.148387 0.152248 0.148389 0.152229 0.152248 0.15563 0.152229 0.155587 0.148389 0.152229 0.14837 0.152193 0.152229 0.155587 0.152193 0.155529 0.139098 0.144019 0.139059 0.143984 0.144019 0.14837 0.143984 0.148329 0.139059 0.143984 0.138991 0.143924 0.143984 0.148329 0.143924 0.148267 0.14837 0.152193 0.148329 0.152138 0.152193 0.155529 0.152138 0.155457 0.148329 0.152138 0.148267 0.152066 0.152138 0.155457 0.152066 0.15537 0 0.0194474 0 0.0187301 0.0194474 0.0382183 0.0187301 0.0368343 0 0.0187301 0 0.0181481 0.0187301 0.0368343 0.0181481 0.0357154 0.0382183 0.0553759 0.0368343 0.053713 0.0553759 0.0703244 0.053713 0.0688085 0.0368343 0.053713 0.0357154 0.0523255 0.053713 0.0688085 0.0523255 0.0674657 0 0.0181481 0 0.0176756 0.0181481 0.0357154 0.0176756 0.0348046 0 0.0176756 0 0.0172904 0.0176756 0.0348046 0.0172904 0.0340581 0.0357154 0.0523255 0.0348046 0.0511603 0.0523255 0.0674657 0.0511603 0.0662798 0.0348046 0.0511603 0.0340581 0.0501762 0.0511603 0.0662798 0.0501762 0.0652335 0.0703244 0.0830516 0.0688085 0.0818949 0.0830516 0.0940144 0.0818949 0.0932061 0.0688085 0.0818949 0.0674657 0.0807993 0.0818949 0.0932061 0.0807993 0.0923976 0.0940144 0.103702 0.0932061 0.10315 0.103702 0.112374 0.10315 0.112 0.0932061 0.10315 0.0923976 0.102575 0.10315 0.112 0.102575 0.111595 0.0674657 0.0807993 0.0662798 0.0797749 0.0807993 0.0923976 0.0797749 0.0916023 0.0662798 0.0797749 0.0652335 0.0788253 0.0797749 0.0916023 0.0788253 0.0908301 0.0923976 0.102575 0.0916023 0.101986 0.102575 0.111595 0.101986 0.111166 0.0916023 0.101986 0.0908301 0.101393 0.101986 0.111166 0.101393 0.11072 0 0.0172904 0 0.0169747 0.0172904 0.0340581 0.0169747 0.0334418 0 0.0169747 0 0.0167143 0.0169747 0.0334418 0.0167143 0.0329293 0.0340581 0.0501762 0.0334418 0.0493407 0.0501762 0.0652335 0.0493407 0.0643103 0.0334418 0.0493407 0.0329293 0.0486277 0.0493407 0.0643103 0.0486277 0.0634948 0 0.0167143 0 0.0164977 0.0167143 0.0329293 0.0164977 0.0325 0 0.0164977 0 0.0163163 0.0164977 0.0325 0.0163163 0.0321375 0.0329293 0.0486277 0.0325 0.0480161 0.0486277 0.0634948 0.0480161 0.0627733 0.0325 0.0480161 0.0321375 0.0474884 0.0480161 0.0627733 0.0474884 0.0621335 0.0652335 0.0788253 0.0643103 0.0779503 0.0788253 0.0908301 0.0779503 0.0900881 0.0643103 0.0779503 0.0634948 0.0771472 0.0779503 0.0900881 0.0771472 0.0893805 0.0908301 0.101393 0.0900881 0.100802 0.101393 0.11072 0.100802 0.110261 0.0900881 0.100802 0.0893805 0.100219 0.100802 0.110261 0.100219 0.109797 0.0634948 0.0771472 0.0627733 0.0764119 0.0771472 0.0893805 0.0764119 0.0887099 0.0627733 0.0764119 0.0621335 0.0757395 0.0764119 0.0887099 0.0757395 0.0880771 0.0893805 0.100219 0.0887099 0.0996491 0.100219 0.109797 0.0996491 0.109329 0.0887099 0.0996491 0.0880771 0.0990955 0.0996491 0.109329 0.0990955 0.108864 0.112374 0.120166 0.112 0.119913 0.120166 0.127161 0.119913 0.126988 0.112 0.119913 0.111595 0.119628 0.119913 0.126988 0.119628 0.126784 0.127161 0.133419 0.126988 0.133296 0.133419 0.138991 0.133296 0.138895 0.126988 0.133296 0.126784 0.133144 0.133296 0.138895 0.133144 0.138775 0.111595 0.119628 0.111166 0.119315 0.119628 0.126784 0.119315 0.126552 0.111166 0.119315 0.11072 0.11898 0.119315 0.126552 0.11898 0.126296 0.126784 0.133144 0.126552 0.132966 0.133144 0.138775 0.132966 0.138631 0.126552 0.132966 0.126296 0.132765 0.132966 0.138631 0.132765 0.138465 0.138991 0.143924 0.138895 0.143841 0.143924 0.148267 0.143841 0.148185 0.138895 0.143841 0.138775 0.143736 0.143841 0.148185 0.143736 0.148084 0.148267 0.152066 0.148185 0.151978 0.152066 0.15537 0.151978 0.155269 0.148185 0.151978 0.148084 0.151873 0.151978 0.155269 0.151873 0.155155 0.138775 0.143736 0.138631 0.14361 0.143736 0.148084 0.14361 0.147965 0.138631 0.14361 0.138465 0.143465 0.14361 0.147965 0.143465 0.147829 0.148084 0.151873 0.147965 0.151752 0.151873 0.155155 0.151752 0.155027 0.147965 0.151752 0.147829 0.151617 0.151752 0.155027 0.151617 0.154885 0.11072 0.11898 0.110261 0.118626 0.11898 0.126296 0.118626 0.12602 0.110261 0.118626 0.109797 0.118258 0.118626 0.12602 0.118258 0.125726 0.126296 0.132765 0.12602 0.132544 0.132765 0.138465 0.132544 0.13828 0.12602 0.132544 0.125726 0.132304 0.132544 0.13828 0.132304 0.138076 0.109797 0.118258 0.109329 0.11788 0.118258 0.125726 0.11788 0.125418 0.109329 0.11788 0.108864 0.117494 0.11788 0.125418 0.117494 0.125098 0.125726 0.132304 0.125418 0.132048 0.132304 0.138076 0.132048 0.137857 0.125418 0.132048 0.125098 0.131778 0.132048 0.137857 0.131778 0.137622 0.138465 0.143465 0.13828 0.143302 0.143465 0.147829 0.143302 0.147676 0.13828 0.143302 0.138076 0.143121 0.143302 0.147676 0.143121 0.147508 0.147829 0.151617 0.147676 0.151466 0.151617 0.154885 0.151466 0.154732 0.147676 0.151466 0.147508 0.151302 0.151466 0.154732 0.151302 0.154565 0.138076 0.143121 0.137857 0.142925 0.143121 0.147508 0.142925 0.147325 0.137857 0.142925 0.137622 0.142714 0.142925 0.147325 0.142714 0.147128 0.147508 0.151302 0.147325 0.151124 0.151302 0.154565 0.151124 0.154387 0.147325 0.151124 0.147128 0.150934 0.151124 0.154387 0.150934 0.154197 0.155655 0.158736 0.155671 0.158712 0.158736 0.161414 0.158712 0.161353 0.155671 0.158712 0.155672 0.158678 0.158712 0.161353 0.158678 0.161284 0.161414 0.163727 0.161353 0.163631 0.163727 0.165711 0.163631 0.165582 0.161353 0.163631 0.161284 0.163528 0.163631 0.165582 0.163528 0.165449 0.155672 0.158678 0.155659 0.158631 0.158678 0.161284 0.158631 0.161205 0.155659 0.158631 0.15563 0.158574 0.158631 0.161205 0.158574 0.161118 0.161284 0.163528 0.161205 0.163419 0.163528 0.165449 0.163419 0.165311 0.161205 0.163419 0.161118 0.163304 0.163419 0.165311 0.163304 0.165169 0.165711 0.167401 0.165582 0.167243 0.167401 0.168833 0.167243 0.168648 0.165582 0.167243 0.165449 0.167082 0.167243 0.168648 0.167082 0.168462 0.168833 0.170038 0.168648 0.16983 0.170038 0.171046 0.16983 0.170817 0.168648 0.16983 0.168462 0.169621 0.16983 0.170817 0.169621 0.170588 0.165449 0.167082 0.165311 0.166918 0.167082 0.168462 0.166918 0.168274 0.165311 0.166918 0.165169 0.16675 0.166918 0.168274 0.16675 0.168083 0.168462 0.169621 0.168274 0.169411 0.169621 0.170588 0.169411 0.170359 0.168274 0.169411 0.168083 0.169199 0.169411 0.170359 0.169199 0.170129 0.15563 0.158574 0.155587 0.158504 0.158574 0.161118 0.158504 0.161022 0.155587 0.158504 0.155529 0.158423 0.158504 0.161022 0.158423 0.160916 0.161118 0.163304 0.161022 0.163181 0.163304 0.165169 0.163181 0.165021 0.161022 0.163181 0.160916 0.163051 0.163181 0.165021 0.163051 0.164867 0.155529 0.158423 0.155457 0.15833 0.158423 0.160916 0.15833 0.160801 0.155457 0.15833 0.15537 0.158225 0.15833 0.160801 0.158225 0.160676 0.160916 0.163051 0.160801 0.162913 0.163051 0.164867 0.162913 0.164707 0.160801 0.162913 0.160676 0.162768 0.162913 0.164707 0.162768 0.164542 0.165169 0.16675 0.165021 0.166578 0.16675 0.168083 0.166578 0.167889 0.165021 0.166578 0.164867 0.166402 0.166578 0.167889 0.166402 0.167693 0.168083 0.169199 0.167889 0.168986 0.169199 0.170129 0.168986 0.169897 0.167889 0.168986 0.167693 0.16877 0.168986 0.169897 0.16877 0.169664 0.164867 0.166402 0.164707 0.166222 0.166402 0.167693 0.166222 0.167492 0.164707 0.166222 0.164542 0.166037 0.166222 0.167492 0.166037 0.167288 0.167693 0.16877 0.167492 0.168552 0.16877 0.169664 0.168552 0.169429 0.167492 0.168552 0.167288 0.168331 0.168552 0.169429 0.168331 0.169193 0.171046 0.171884 0.170817 0.171637 0.171884 0.172577 0.171637 0.172315 0.170817 0.171637 0.170588 0.171391 0.171637 0.172315 0.171391 0.172053 0.172577 0.173146 0.172315 0.172871 0.173146 0.173611 0.172871 0.173325 0.172315 0.172871 0.172053 0.172596 0.172871 0.173325 0.172596 0.173039 0.170588 0.171391 0.170359 0.171145 0.171391 0.172053 0.171145 0.171792 0.170359 0.171145 0.170129 0.170898 0.171145 0.171792 0.170898 0.171531 0.172053 0.172596 0.171792 0.172322 0.172596 0.173039 0.172322 0.172754 0.171792 0.172322 0.171531 0.172048 0.172322 0.172754 0.172048 0.172469 0.173611 0.173989 0.173325 0.173693 0.173989 0.174294 0.173693 0.17399 0.173325 0.173693 0.173039 0.173398 0.173693 0.17399 0.173398 0.173687 0.174294 0.174539 0.17399 0.174229 0.174539 0.174735 0.174229 0.174419 0.17399 0.174229 0.173687 0.173919 0.174229 0.174419 0.173919 0.174104 0.173039 0.173398 0.172754 0.173103 0.173398 0.173687 0.173103 0.173385 0.172754 0.173103 0.172469 0.17281 0.173103 0.173385 0.17281 0.173083 0.173687 0.173919 0.173385 0.17361 0.173919 0.174104 0.17361 0.17379 0.173385 0.17361 0.173083 0.173302 0.17361 0.17379 0.173302 0.173476 0.170129 0.170898 0.169897 0.17065 0.170898 0.171531 0.17065 0.171269 0.169897 0.17065 0.169664 0.170402 0.17065 0.171269 0.170402 0.171007 0.171531 0.172048 0.171269 0.171775 0.172048 0.172469 0.171775 0.172185 0.171269 0.171775 0.171007 0.171501 0.171775 0.172185 0.171501 0.171901 0.169664 0.170402 0.169429 0.170153 0.170402 0.171007 0.170153 0.170745 0.169429 0.170153 0.169193 0.169901 0.170153 0.170745 0.169901 0.170481 0.171007 0.171501 0.170745 0.171226 0.171501 0.171901 0.171226 0.171616 0.170745 0.171226 0.170481 0.170951 0.171226 0.171616 0.170951 0.171332 0.172469 0.17281 0.172185 0.172516 0.17281 0.173083 0.172516 0.172782 0.172185 0.172516 0.171901 0.172223 0.172516 0.172782 0.172223 0.172482 0.173083 0.173302 0.172782 0.172995 0.173302 0.173476 0.172995 0.173163 0.172782 0.172995 0.172482 0.172687 0.172995 0.173163 0.172687 0.172851 0.171901 0.172223 0.171616 0.17193 0.172223 0.172482 0.17193 0.172181 0.171616 0.17193 0.171332 0.171637 0.17193 0.172181 0.171637 0.17188 0.172482 0.172687 0.172181 0.17238 0.172687 0.172851 0.17238 0.172538 0.172181 0.17238 0.17188 0.172074 0.17238 0.172538 0.172074 0.172226 0.15537 0.158225 0.155269 0.158108 0.158225 0.160676 0.158108 0.160542 0.155269 0.158108 0.155155 0.15798 0.158108 0.160542 0.15798 0.160398 0.160676 0.162768 0.160542 0.162615 0.162768 0.164542 0.162615 0.16437 0.160542 0.162615 0.160398 0.162454 0.162615 0.16437 0.162454 0.164191 0.155155 0.15798 0.155027 0.157841 0.15798 0.160398 0.157841 0.160244 0.155027 0.157841 0.154885 0.15769 0.157841 0.160244 0.15769 0.160081 0.160398 0.162454 0.160244 0.162285 0.162454 0.164191 0.162285 0.164006 0.160244 0.162285 0.160081 0.162108 0.162285 0.164006 0.162108 0.163815 0.164542 0.166037 0.16437 0.165846 0.166037 0.167288 0.165846 0.167081 0.16437 0.165846 0.164191 0.165651 0.165846 0.167081 0.165651 0.166869 0.167288 0.168331 0.167081 0.168106 0.168331 0.169193 0.168106 0.168953 0.167081 0.168106 0.166869 0.167879 0.168106 0.168953 0.167879 0.168712 0.164191 0.165651 0.164006 0.16545 0.165651 0.166869 0.16545 0.166652 0.164006 0.16545 0.163815 0.165243 0.16545 0.166652 0.165243 0.166431 0.166869 0.167879 0.166652 0.167648 0.167879 0.168712 0.167648 0.168467 0.166652 0.167648 0.166431 0.167413 0.167648 0.168467 0.167413 0.168219 0.154885 0.15769 0.154732 0.157528 0.15769 0.160081 0.157528 0.159909 0.154732 0.157528 0.154565 0.157355 0.157528 0.159909 0.157355 0.159727 0.160081 0.162108 0.159909 0.161923 0.162108 0.163815 0.161923 0.163616 0.159909 0.161923 0.159727 0.161729 0.161923 0.163616 0.161729 0.163411 0.154565 0.157355 0.154387 0.157172 0.157355 0.159727 0.157172 0.159535 0.154387 0.157172 0.154197 0.156978 0.157172 0.159535 0.156978 0.159335 0.159727 0.161729 0.159535 0.161528 0.161729 0.163411 0.161528 0.163198 0.159535 0.161528 0.159335 0.161319 0.161528 0.163198 0.161319 0.162979 0.163815 0.165243 0.163616 0.165031 0.165243 0.166431 0.165031 0.166206 0.163616 0.165031 0.163411 0.164813 0.165031 0.166206 0.164813 0.165975 0.166431 0.167413 0.166206 0.167174 0.167413 0.168219 0.167174 0.167969 0.166206 0.167174 0.165975 0.166932 0.167174 0.167969 0.166932 0.167714 0.163411 0.164813 0.163198 0.164589 0.164813 0.165975 0.164589 0.165739 0.163198 0.164589 0.162979 0.164359 0.164589 0.165739 0.164359 0.165498 0.165975 0.166932 0.165739 0.166685 0.166932 0.167714 0.166685 0.167457 0.165739 0.166685 0.165498 0.166433 0.166685 0.167457 0.166433 0.167195 0.169193 0.169901 0.168953 0.169649 0.169901 0.170481 0.169649 0.170216 0.168953 0.169649 0.168712 0.169394 0.169649 0.170216 0.169394 0.169949 0.170481 0.170951 0.170216 0.170676 0.170951 0.171332 0.170676 0.171046 0.170216 0.170676 0.169949 0.170399 0.170676 0.171046 0.170399 0.17076 0.168712 0.169394 0.168467 0.169137 0.169394 0.169949 0.169137 0.169681 0.168467 0.169137 0.168219 0.168877 0.169137 0.169681 0.168877 0.169411 0.169949 0.170399 0.169681 0.17012 0.170399 0.17076 0.17012 0.170473 0.169681 0.17012 0.169411 0.16984 0.17012 0.170473 0.16984 0.170184 0.171332 0.171637 0.171046 0.171343 0.171637 0.17188 0.171343 0.171579 0.171046 0.171343 0.17076 0.171049 0.171343 0.171579 0.171049 0.171278 0.17188 0.172074 0.171579 0.171767 0.172074 0.172226 0.171767 0.171914 0.171579 0.171767 0.171278 0.171459 0.171767 0.171914 0.171459 0.171602 0.17076 0.171049 0.170473 0.170754 0.171049 0.171278 0.170754 0.170977 0.170473 0.170754 0.170184 0.170458 0.170754 0.170977 0.170458 0.170674 0.171278 0.171459 0.170977 0.171152 0.171459 0.171602 0.171152 0.171289 0.170977 0.171152 0.170674 0.170844 0.171152 0.171289 0.170844 0.170977 0.168219 0.168877 0.167969 0.168615 0.168877 0.169411 0.168615 0.169139 0.167969 0.168615 0.167714 0.168351 0.168615 0.169139 0.168351 0.168864 0.169411 0.16984 0.169139 0.169559 0.16984 0.170184 0.169559 0.169895 0.169139 0.169559 0.168864 0.169276 0.169559 0.169895 0.169276 0.169604 0.167714 0.168351 0.167457 0.168083 0.168351 0.168864 0.168083 0.168587 0.167457 0.168083 0.167195 0.167812 0.168083 0.168587 0.167812 0.168308 0.168864 0.169276 0.168587 0.168991 0.169276 0.169604 0.168991 0.169311 0.168587 0.168991 0.168308 0.168703 0.168991 0.169311 0.168703 0.169017 0.170184 0.170458 0.169895 0.170161 0.170458 0.170674 0.170161 0.170371 0.169895 0.170161 0.169604 0.169863 0.170161 0.170371 0.169863 0.170067 0.170674 0.170844 0.170371 0.170536 0.170844 0.170977 0.170536 0.170663 0.170371 0.170536 0.170067 0.170226 0.170536 0.170663 0.170226 0.17035 0.169604 0.169863 0.169311 0.169564 0.169863 0.170067 0.169564 0.169762 0.169311 0.169564 0.169017 0.169263 0.169564 0.169762 0.169263 0.169456 0.170067 0.170226 0.169762 0.169916 0.170226 0.17035 0.169916 0.170035 0.169762 0.169916 0.169456 0.169605 0.169916 0.170035 0.169605 0.16972 0 0.0163163 0 0.0161629 0.0163163 0.0321375 0.0161629 0.0318289 0 0.0161629 0 0.0160322 0.0161629 0.0318289 0.0160322 0.0315642 0.0321375 0.0474884 0.0318289 0.0470308 0.0474884 0.0621335 0.0470308 0.0615648 0.0318289 0.0470308 0.0315642 0.0466316 0.0470308 0.0615648 0.0466316 0.0610576 0 0.0160322 0 0.0159196 0.0160322 0.0315642 0.0159196 0.0313352 0 0.0159196 0 0.0158219 0.0159196 0.0313352 0.0158219 0.0311354 0.0315642 0.0466316 0.0313352 0.0462813 0.0466316 0.0610576 0.0462813 0.060604 0.0313352 0.0462813 0.0311354 0.045972 0.0462813 0.060604 0.045972 0.0601967 0.0621335 0.0757395 0.0615648 0.0751251 0.0757395 0.0880771 0.0751251 0.087482 0.0615648 0.0751251 0.0610576 0.0745634 0.0751251 0.087482 0.0745634 0.0869236 0.0880771 0.0990955 0.087482 0.0985606 0.0990955 0.108864 0.0985606 0.108403 0.087482 0.0985606 0.0869236 0.098046 0.0985606 0.108403 0.098046 0.10795 0.0610576 0.0745634 0.060604 0.0740496 0.0745634 0.0869236 0.0740496 0.0864006 0.060604 0.0740496 0.0601967 0.0735791 0.0740496 0.0864006 0.0735791 0.0859111 0.0869236 0.098046 0.0864006 0.0975525 0.098046 0.10795 0.0975525 0.107506 0.0864006 0.0975525 0.0859111 0.0970806 0.0975525 0.107506 0.0970806 0.107073 0 0.0158219 0 0.0157362 0.0158219 0.0311354 0.0157362 0.0309596 0 0.0157362 0 0.0156603 0.0157362 0.0309596 0.0156603 0.0308036 0.0311354 0.045972 0.0309596 0.0456973 0.045972 0.0601967 0.0456973 0.0598298 0.0309596 0.0456973 0.0308036 0.0454519 0.0456973 0.0598298 0.0454519 0.0594979 0 0.0156603 0 0.0155924 0.0156603 0.0308036 0.0155924 0.0