# vtk DataFile Version 3.0
#This file was generated by the deal.II library on 2022/1/6 at 23:02:19
ASCII
DATASET UNSTRUCTURED_GRID

POINTS 16384 double
0 0 0
0.1875 0 0
0 0.046875 0
0.1875 0.046875 0
0.1875 0 0
0.375 0 0
0.1875 0.046875 0
0.375 0.046875 0
0 0.046875 0
0.1875 0.046875 0
0 0.09375 0
0.1875 0.09375 0
0.1875 0.046875 0
0.375 0.046875 0
0.1875 0.09375 0
0.375 0.09375 0
0.375 0 0
0.5625 0 0
0.375 0.046875 0
0.5625 0.046875 0
0.5625 0 0
0.75 0 0
0.5625 0.046875 0
0.75 0.046875 0
0.375 0.046875 0
0.5625 0.046875 0
0.375 0.09375 0
0.5625 0.09375 0
0.5625 0.046875 0
0.75 0.046875 0
0.5625 0.09375 0
0.75 0.09375 0
0 0.09375 0
0.1875 0.09375 0
0 0.140625 0
0.1875 0.140625 0
0.1875 0.09375 0
0.375 0.09375 0
0.1875 0.140625 0
0.375 0.140625 0
0 0.140625 0
0.1875 0.140625 0
0 0.1875 0
0.1875 0.1875 0
0.1875 0.140625 0
0.375 0.140625 0
0.1875 0.1875 0
0.375 0.1875 0
0.375 0.09375 0
0.5625 0.09375 0
0.375 0.140625 0
0.5625 0.140625 0
0.5625 0.09375 0
0.75 0.09375 0
0.5625 0.140625 0
0.75 0.140625 0
0.375 0.140625 0
0.5625 0.140625 0
0.375 0.1875 0
0.5625 0.1875 0
0.5625 0.140625 0
0.75 0.140625 0
0.5625 0.1875 0
0.75 0.1875 0
0.75 0 0
0.9375 0 0
0.75 0.046875 0
0.9375 0.046875 0
0.9375 0 0
1.125 0 0
0.9375 0.046875 0
1.125 0.046875 0
0.75 0.046875 0
0.9375 0.046875 0
0.75 0.09375 0
0.9375 0.09375 0
0.9375 0.046875 0
1.125 0.046875 0
0.9375 0.09375 0
1.125 0.09375 0
1.125 0 0
1.3125 0 0
1.125 0.046875 0
1.3125 0.046875 0
1.3125 0 0
1.5 0 0
1.3125 0.046875 0
1.5 0.046875 0
1.125 0.046875 0
1.3125 0.046875 0
1.125 0.09375 0
1.3125 0.09375 0
1.3125 0.046875 0
1.5 0.046875 0
1.3125 0.09375 0
1.5 0.09375 0
0.75 0.09375 0
0.9375 0.09375 0
0.75 0.140625 0
0.9375 0.140625 0
0.9375 0.09375 0
1.125 0.09375 0
0.9375 0.140625 0
1.125 0.140625 0
0.75 0.140625 0
0.9375 0.140625 0
0.75 0.1875 0
0.9375 0.1875 0
0.9375 0.140625 0
1.125 0.140625 0
0.9375 0.1875 0
1.125 0.1875 0
1.125 0.09375 0
1.3125 0.09375 0
1.125 0.140625 0
1.3125 0.140625 0
1.3125 0.09375 0
1.5 0.09375 0
1.3125 0.140625 0
1.5 0.140625 0
1.125 0.140625 0
1.3125 0.140625 0
1.125 0.1875 0
1.3125 0.1875 0
1.3125 0.140625 0
1.5 0.140625 0
1.3125 0.1875 0
1.5 0.1875 0
0 0.1875 0
0.1875 0.1875 0
0 0.234375 0
0.1875 0.234375 0
0.1875 0.1875 0
0.375 0.1875 0
0.1875 0.234375 0
0.375 0.234375 0
0 0.234375 0
0.1875 0.234375 0
0 0.28125 0
0.1875 0.28125 0
0.1875 0.234375 0
0.375 0.234375 0
0.1875 0.28125 0
0.375 0.28125 0
0.375 0.1875 0
0.5625 0.1875 0
0.375 0.234375 0
0.5625 0.234375 0
0.5625 0.1875 0
0.75 0.1875 0
0.5625 0.234375 0
0.75 0.234375 0
0.375 0.234375 0
0.5625 0.234375 0
0.375 0.28125 0
0.5625 0.28125 0
0.5625 0.234375 0
0.75 0.234375 0
0.5625 0.28125 0
0.75 0.28125 0
0 0.28125 0
0.1875 0.28125 0
0 0.328125 0
0.1875 0.328125 0
0.1875 0.28125 0
0.375 0.28125 0
0.1875 0.328125 0
0.375 0.328125 0
0 0.328125 0
0.1875 0.328125 0
0 0.375 0
0.1875 0.375 0
0.1875 0.328125 0
0.375 0.328125 0
0.1875 0.375 0
0.375 0.375 0
0.375 0.28125 0
0.5625 0.28125 0
0.375 0.328125 0
0.5625 0.328125 0
0.5625 0.28125 0
0.75 0.28125 0
0.5625 0.328125 0
0.75 0.328125 0
0.375 0.328125 0
0.5625 0.328125 0
0.375 0.375 0
0.5625 0.375 0
0.5625 0.328125 0
0.75 0.328125 0
0.5625 0.375 0
0.75 0.375 0
0.75 0.1875 0
0.9375 0.1875 0
0.75 0.234375 0
0.9375 0.234375 0
0.9375 0.1875 0
1.125 0.1875 0
0.9375 0.234375 0
1.125 0.234375 0
0.75 0.234375 0
0.9375 0.234375 0
0.75 0.28125 0
0.9375 0.28125 0
0.9375 0.234375 0
1.125 0.234375 0
0.9375 0.28125 0
1.125 0.28125 0
1.125 0.1875 0
1.3125 0.1875 0
1.125 0.234375 0
1.3125 0.234375 0
1.3125 0.1875 0
1.5 0.1875 0
1.3125 0.234375 0
1.5 0.234375 0
1.125 0.234375 0
1.3125 0.234375 0
1.125 0.28125 0
1.3125 0.28125 0
1.3125 0.234375 0
1.5 0.234375 0
1.3125 0.28125 0
1.5 0.28125 0
0.75 0.28125 0
0.9375 0.28125 0
0.75 0.328125 0
0.9375 0.328125 0
0.9375 0.28125 0
1.125 0.28125 0
0.9375 0.328125 0
1.125 0.328125 0
0.75 0.328125 0
0.9375 0.328125 0
0.75 0.375 0
0.9375 0.375 0
0.9375 0.328125 0
1.125 0.328125 0
0.9375 0.375 0
1.125 0.375 0
1.125 0.28125 0
1.3125 0.28125 0
1.125 0.328125 0
1.3125 0.328125 0
1.3125 0.28125 0
1.5 0.28125 0
1.3125 0.328125 0
1.5 0.328125 0
1.125 0.328125 0
1.3125 0.328125 0
1.125 0.375 0
1.3125 0.375 0
1.3125 0.328125 0
1.5 0.328125 0
1.3125 0.375 0
1.5 0.375 0
1.5 0 0
1.6875 0 0
1.5 0.046875 0
1.6875 0.046875 0
1.6875 0 0
1.875 0 0
1.6875 0.046875 0
1.875 0.046875 0
1.5 0.046875 0
1.6875 0.046875 0
1.5 0.09375 0
1.6875 0.09375 0
1.6875 0.046875 0
1.875 0.046875 0
1.6875 0.09375 0
1.875 0.09375 0
1.875 0 0
2.0625 0 0
1.875 0.046875 0
2.0625 0.046875 0
2.0625 0 0
2.25 0 0
2.0625 0.046875 0
2.25 0.046875 0
1.875 0.046875 0
2.0625 0.046875 0
1.875 0.09375 0
2.0625 0.09375 0
2.0625 0.046875 0
2.25 0.046875 0
2.0625 0.09375 0
2.25 0.09375 0
1.5 0.09375 0
1.6875 0.09375 0
1.5 0.140625 0
1.6875 0.140625 0
1.6875 0.09375 0
1.875 0.09375 0
1.6875 0.140625 0
1.875 0.140625 0
1.5 0.140625 0
1.6875 0.140625 0
1.5 0.1875 0
1.6875 0.1875 0
1.6875 0.140625 0
1.875 0.140625 0
1.6875 0.1875 0
1.875 0.1875 0
1.875 0.09375 0
2.0625 0.09375 0
1.875 0.140625 0
2.0625 0.140625 0
2.0625 0.09375 0
2.25 0.09375 0
2.0625 0.140625 0
2.25 0.140625 0
1.875 0.140625 0
2.0625 0.140625 0
1.875 0.1875 0
2.0625 0.1875 0
2.0625 0.140625 0
2.25 0.140625 0
2.0625 0.1875 0
2.25 0.1875 0
2.25 0 0
2.4375 0 0
2.25 0.046875 0
2.4375 0.046875 0
2.4375 0 0
2.625 0 0
2.4375 0.046875 0
2.625 0.046875 0
2.25 0.046875 0
2.4375 0.046875 0
2.25 0.09375 0
2.4375 0.09375 0
2.4375 0.046875 0
2.625 0.046875 0
2.4375 0.09375 0
2.625 0.09375 0
2.625 0 0
2.8125 0 0
2.625 0.046875 0
2.8125 0.046875 0
2.8125 0 0
3 0 0
2.8125 0.046875 0
3 0.046875 0
2.625 0.046875 0
2.8125 0.046875 0
2.625 0.09375 0
2.8125 0.09375 0
2.8125 0.046875 0
3 0.046875 0
2.8125 0.09375 0
3 0.09375 0
2.25 0.09375 0
2.4375 0.09375 0
2.25 0.140625 0
2.4375 0.140625 0
2.4375 0.09375 0
2.625 0.09375 0
2.4375 0.140625 0
2.625 0.140625 0
2.25 0.140625 0
2.4375 0.140625 0
2.25 0.1875 0
2.4375 0.1875 0
2.4375 0.140625 0
2.625 0.140625 0
2.4375 0.1875 0
2.625 0.1875 0
2.625 0.09375 0
2.8125 0.09375 0
2.625 0.140625 0
2.8125 0.140625 0
2.8125 0.09375 0
3 0.09375 0
2.8125 0.140625 0
3 0.140625 0
2.625 0.140625 0
2.8125 0.140625 0
2.625 0.1875 0
2.8125 0.1875 0
2.8125 0.140625 0
3 0.140625 0
2.8125 0.1875 0
3 0.1875 0
1.5 0.1875 0
1.6875 0.1875 0
1.5 0.234375 0
1.6875 0.234375 0
1.6875 0.1875 0
1.875 0.1875 0
1.6875 0.234375 0
1.875 0.234375 0
1.5 0.234375 0
1.6875 0.234375 0
1.5 0.28125 0
1.6875 0.28125 0
1.6875 0.234375 0
1.875 0.234375 0
1.6875 0.28125 0
1.875 0.28125 0
1.875 0.1875 0
2.0625 0.1875 0
1.875 0.234375 0
2.0625 0.234375 0
2.0625 0.1875 0
2.25 0.1875 0
2.0625 0.234375 0
2.25 0.234375 0
1.875 0.234375 0
2.0625 0.234375 0
1.875 0.28125 0
2.0625 0.28125 0
2.0625 0.234375 0
2.25 0.234375 0
2.0625 0.28125 0
2.25 0.28125 0
1.5 0.28125 0
1.6875 0.28125 0
1.5 0.328125 0
1.6875 0.328125 0
1.6875 0.28125 0
1.875 0.28125 0
1.6875 0.328125 0
1.875 0.328125 0
1.5 0.328125 0
1.6875 0.328125 0
1.5 0.375 0
1.6875 0.375 0
1.6875 0.328125 0
1.875 0.328125 0
1.6875 0.375 0
1.875 0.375 0
1.875 0.28125 0
2.0625 0.28125 0
1.875 0.328125 0
2.0625 0.328125 0
2.0625 0.28125 0
2.25 0.28125 0
2.0625 0.328125 0
2.25 0.328125 0
1.875 0.328125 0
2.0625 0.328125 0
1.875 0.375 0
2.0625 0.375 0
2.0625 0.328125 0
2.25 0.328125 0
2.0625 0.375 0
2.25 0.375 0
2.25 0.1875 0
2.4375 0.1875 0
2.25 0.234375 0
2.4375 0.234375 0
2.4375 0.1875 0
2.625 0.1875 0
2.4375 0.234375 0
2.625 0.234375 0
2.25 0.234375 0
2.4375 0.234375 0
2.25 0.28125 0
2.4375 0.28125 0
2.4375 0.234375 0
2.625 0.234375 0
2.4375 0.28125 0
2.625 0.28125 0
2.625 0.1875 0
2.8125 0.1875 0
2.625 0.234375 0
2.8125 0.234375 0
2.8125 0.1875 0
3 0.1875 0
2.8125 0.234375 0
3 0.234375 0
2.625 0.234375 0
2.8125 0.234375 0
2.625 0.28125 0
2.8125 0.28125 0
2.8125 0.234375 0
3 0.234375 0
2.8125 0.28125 0
3 0.28125 0
2.25 0.28125 0
2.4375 0.28125 0
2.25 0.328125 0
2.4375 0.328125 0
2.4375 0.28125 0
2.625 0.28125 0
2.4375 0.328125 0
2.625 0.328125 0
2.25 0.328125 0
2.4375 0.328125 0
2.25 0.375 0
2.4375 0.375 0
2.4375 0.328125 0
2.625 0.328125 0
2.4375 0.375 0
2.625 0.375 0
2.625 0.28125 0
2.8125 0.28125 0
2.625 0.328125 0
2.8125 0.328125 0
2.8125 0.28125 0
3 0.28125 0
2.8125 0.328125 0
3 0.328125 0
2.625 0.328125 0
2.8125 0.328125 0
2.625 0.375 0
2.8125 0.375 0
2.8125 0.328125 0
3 0.328125 0
2.8125 0.375 0
3 0.375 0
0 0.375 0
0.1875 0.375 0
0 0.421875 0
0.1875 0.421875 0
0.1875 0.375 0
0.375 0.375 0
0.1875 0.421875 0
0.375 0.421875 0
0 0.421875 0
0.1875 0.421875 0
0 0.46875 0
0.1875 0.46875 0
0.1875 0.421875 0
0.375 0.421875 0
0.1875 0.46875 0
0.375 0.46875 0
0.375 0.375 0
0.5625 0.375 0
0.375 0.421875 0
0.5625 0.421875 0
0.5625 0.375 0
0.75 0.375 0
0.5625 0.421875 0
0.75 0.421875 0
0.375 0.421875 0
0.5625 0.421875 0
0.375 0.46875 0
0.5625 0.46875 0
0.5625 0.421875 0
0.75 0.421875 0
0.5625 0.46875 0
0.75 0.46875 0
0 0.46875 0
0.1875 0.46875 0
0 0.515625 0
0.1875 0.515625 0
0.1875 0.46875 0
0.375 0.46875 0
0.1875 0.515625 0
0.375 0.515625 0
0 0.515625 0
0.1875 0.515625 0
0 0.5625 0
0.1875 0.5625 0
0.1875 0.515625 0
0.375 0.515625 0
0.1875 0.5625 0
0.375 0.5625 0
0.375 0.46875 0
0.5625 0.46875 0
0.375 0.515625 0
0.5625 0.515625 0
0.5625 0.46875 0
0.75 0.46875 0
0.5625 0.515625 0
0.75 0.515625 0
0.375 0.515625 0
0.5625 0.515625 0
0.375 0.5625 0
0.5625 0.5625 0
0.5625 0.515625 0
0.75 0.515625 0
0.5625 0.5625 0
0.75 0.5625 0
0.75 0.375 0
0.9375 0.375 0
0.75 0.421875 0
0.9375 0.421875 0
0.9375 0.375 0
1.125 0.375 0
0.9375 0.421875 0
1.125 0.421875 0
0.75 0.421875 0
0.9375 0.421875 0
0.75 0.46875 0
0.9375 0.46875 0
0.9375 0.421875 0
1.125 0.421875 0
0.9375 0.46875 0
1.125 0.46875 0
1.125 0.375 0
1.3125 0.375 0
1.125 0.421875 0
1.3125 0.421875 0
1.3125 0.375 0
1.5 0.375 0
1.3125 0.421875 0
1.5 0.421875 0
1.125 0.421875 0
1.3125 0.421875 0
1.125 0.46875 0
1.3125 0.46875 0
1.3125 0.421875 0
1.5 0.421875 0
1.3125 0.46875 0
1.5 0.46875 0
0.75 0.46875 0
0.9375 0.46875 0
0.75 0.515625 0
0.9375 0.515625 0
0.9375 0.46875 0
1.125 0.46875 0
0.9375 0.515625 0
1.125 0.515625 0
0.75 0.515625 0
0.9375 0.515625 0
[...]
POINT_DATA 16384
SCALARS x_displacement double 1
LOOKUP_TABLE default
0 0.0339281 0 0.0302968 0.0339281 0.0599271 0.0302968 0.0581902 0 0.0302968 0 0.0278077 0.0302968 0.0581902 0.0278077 0.0553621 0.0599271 0.0764431 0.0581902 0.0750704 0.0764431 0.0833077 0.0750704 0.0824335 0.0581902 0.0750704 0.0553621 0.0730201 0.0750704 0.0824335 0.0730201 0.0811245 0 0.0278077 0 0.02577 0.0278077 0.0553621 0.02577 0.0517505 0 0.02577 0 0.0240632 0.02577 0.0517505 0.0240632 0.0480925 0.0553621 0.0730201 0.0517505 0.0701891 0.0730201 0.0811245 0.0701891 0.0794186 0.0517505 0.0701891 0.0480925 0.0664292 0.0701891 0.0794186 0.0664292 0.0774468 0.0833077 0.0898736 0.0824335 0.0894691 0.0898736 0.0970954 0.0894691 0.0970418 0.0824335 0.0894691 0.0811245 0.088833 0.0894691 0.0970418 0.088833 0.0968107 0.0970954 0.10449 0.0970418 0.104592 0.10449 0.111666 0.104592 0.111846 0.0970418 0.104592 0.0968107 0.104569 0.104592 0.111846 0.104569 0.11193 0.0811245 0.088833 0.0794186 0.0880052 0.088833 0.0968107 0.0880052 0.0964301 0.0794186 0.0880052 0.0774468 0.0870323 0.0880052 0.0964301 0.0870323 0.0959215 0.0968107 0.104569 0.0964301 0.104431 0.104569 0.11193 0.104431 0.111926 0.0964301 0.104431 0.0959215 0.104193 0.104431 0.111926 0.104193 0.111842 0 0.0240632 0 0.0226213 0.0240632 0.0480925 0.0226213 0.0446763 0 0.0226213 0 0.0213566 0.0226213 0.0446763 0.0213566 0.0419668 0.0480925 0.0664292 0.0446763 0.0626203 0.0664292 0.0774468 0.0626203 0.0754441 0.0446763 0.0626203 0.0419668 0.0595662 0.0626203 0.0754441 0.0595662 0.0734459 0 0.0213566 0 0.0202919 0.0213566 0.0419668 0.0202919 0.0398163 0 0.0202919 0 0.0194154 0.0202919 0.0398163 0.0194154 0.0381012 0.0419668 0.0595662 0.0398163 0.0571216 0.0595662 0.0734459 0.0571216 0.0715788 0.0398163 0.0571216 0.0381012 0.0551235 0.0571216 0.0715788 0.0551235 0.069891 0.0774468 0.0870323 0.0754441 0.0859369 0.0870323 0.0959215 0.0859369 0.0953126 0.0754441 0.0859369 0.0734459 0.0847759 0.0859369 0.0953126 0.0847759 0.0946245 0.0959215 0.104193 0.0953126 0.103867 0.104193 0.111842 0.103867 0.111684 0.0953126 0.103867 0.0946245 0.103468 0.103867 0.111684 0.103468 0.111462 0.0734459 0.0847759 0.0715788 0.0835821 0.0847759 0.0946245 0.0835821 0.0938812 0.0715788 0.0835821 0.069891 0.0823966 0.0835821 0.0938812 0.0823966 0.0931019 0.0946245 0.103468 0.0938812 0.103008 0.103468 0.111462 0.103008 0.111185 0.0938812 0.103008 0.0931019 0.102501 0.103008 0.111185 0.102501 0.110859 0.111666 0.118444 0.111846 0.118656 0.118444 0.124734 0.118656 0.124949 0.111846 0.118656 0.11193 0.118793 0.118656 0.124949 0.118793 0.125104 0.124734 0.130496 0.124949 0.130694 0.130496 0.135715 0.130694 0.135884 0.124949 0.130694 0.125104 0.130844 0.130694 0.135884 0.130844 0.136015 0.11193 0.118793 0.111926 0.11886 0.118793 0.125104 0.11886 0.125202 0.111926 0.11886 0.111842 0.118861 0.11886 0.125202 0.118861 0.125248 0.125104 0.130844 0.125202 0.130949 0.130844 0.136015 0.130949 0.136109 0.125202 0.130949 0.125248 0.13101 0.130949 0.136109 0.13101 0.136167 0.135715 0.140398 0.135884 0.140529 0.140398 0.144561 0.140529 0.144652 0.135884 0.140529 0.136015 0.140631 0.140529 0.144652 0.140631 0.144719 0.144561 0.148232 0.144652 0.14828 0.148232 0.151443 0.14828 0.151449 0.144652 0.14828 0.144719 0.148309 0.14828 0.151449 0.148309 0.15144 0.136015 0.140631 0.136109 0.140703 0.140631 0.144719 0.140703 0.144763 0.136109 0.140703 0.136167 0.140747 0.140703 0.144763 0.140747 0.144783 0.144719 0.148309 0.144763 0.148321 0.148309 0.15144 0.148321 0.151417 0.144763 0.148321 0.144783 0.148314 0.148321 0.151417 0.148314 0.151381 0.111842 0.118861 0.111684 0.118802 0.118861 0.125248 0.118802 0.125243 0.111684 0.118802 0.111462 0.118688 0.118802 0.125243 0.118688 0.125191 0.125248 0.13101 0.125243 0.13103 0.13101 0.136167 0.13103 0.136192 0.125243 0.13103 0.125191 0.131011 0.13103 0.136192 0.131011 0.136184 0.111462 0.118688 0.111185 0.118525 0.118688 0.125191 0.118525 0.125097 0.111185 0.118525 0.110859 0.118317 0.118525 0.125097 0.118317 0.124964 0.125191 0.131011 0.125097 0.130955 0.131011 0.136184 0.130955 0.136146 0.125097 0.130955 0.124964 0.130866 0.130955 0.136146 0.130866 0.136079 0.136167 0.140747 0.136192 0.140763 0.140747 0.144783 0.140763 0.144782 0.136192 0.140763 0.136184 0.140753 0.140763 0.144782 0.140753 0.144759 0.144783 0.148314 0.144782 0.14829 0.148314 0.151381 0.14829 0.15133 0.144782 0.14829 0.144759 0.148248 0.14829 0.15133 0.148248 0.151265 0.136184 0.140753 0.136146 0.140717 0.140753 0.144759 0.140717 0.144715 0.136146 0.140717 0.136079 0.140656 0.140717 0.144715 0.140656 0.14465 0.144759 0.148248 0.144715 0.148188 0.148248 0.151265 0.148188 0.151186 0.144715 0.148188 0.14465 0.148112 0.148188 0.151186 0.148112 0.151093 0 0.0194154 0 0.0187017 0.0194154 0.0381012 0.0187017 0.0367244 0 0.0187017 0 0.0181228 0.0187017 0.0367244 0.0181228 0.0356116 0.0381012 0.0551235 0.0367244 0.0534703 0.0551235 0.069891 0.0534703 0.0683863 0.0367244 0.0534703 0.0356116 0.0520913 0.0534703 0.0683863 0.0520913 0.0670534 0 0.0181228 0 0.0176528 0.0181228 0.0356116 0.0176528 0.034706 0 0.0176528 0 0.0172699 0.0176528 0.034706 0.0172699 0.0339639 0.0356116 0.0520913 0.034706 0.0509334 0.0520913 0.0670534 0.0509334 0.0658762 0.034706 0.0509334 0.0339639 0.0499557 0.0509334 0.0658762 0.0499557 0.0648376 0.069891 0.0823966 0.0683863 0.0812515 0.0823966 0.0931019 0.0812515 0.0923047 0.0683863 0.0812515 0.0670534 0.0801662 0.0812515 0.0923047 0.0801662 0.0915063 0.0931019 0.102501 0.0923047 0.101959 0.102501 0.110859 0.101959 0.110494 0.0923047 0.101959 0.0915063 0.101393 0.101959 0.110494 0.101393 0.110097 0.0670534 0.0801662 0.0658762 0.0791511 0.0801662 0.0915063 0.0791511 0.0907201 0.0658762 0.0791511 0.0648376 0.0782098 0.0791511 0.0907201 0.0782098 0.0899562 0.0915063 0.101393 0.0907201 0.100813 0.101393 0.110097 0.100813 0.109675 0.0907201 0.100813 0.0899562 0.100227 0.100813 0.109675 0.100227 0.109236 0 0.0172699 0 0.0169562 0.0172699 0.0339639 0.0169562 0.0333514 0 0.0169562 0 0.0166974 0.0169562 0.0333514 0.0166974 0.0328423 0.0339639 0.0499557 0.0333514 0.0491257 0.0499557 0.0648376 0.0491257 0.0639211 0.0333514 0.0491257 0.0328423 0.0484175 0.0491257 0.0639211 0.0484175 0.0631115 0 0.0166974 0 0.0164823 0.0166974 0.0328423 0.0164823 0.0324158 0 0.0164823 0 0.0163022 0.0164823 0.0324158 0.0163022 0.0320557 0.0328423 0.0484175 0.0324158 0.04781 0.0484175 0.0631115 0.04781 0.0623952 0.0324158 0.04781 0.0320557 0.047286 0.04781 0.0623952 0.047286 0.0617601 0.0648376 0.0782098 0.0639211 0.0773422 0.0782098 0.0899562 0.0773422 0.0892216 0.0639211 0.0773422 0.0631115 0.0765456 0.0773422 0.0892216 0.0765456 0.0885207 0.0899562 0.100227 0.0892216 0.0996433 0.100227 0.109236 0.0996433 0.108783 0.0892216 0.0996433 0.0885207 0.0990669 0.0996433 0.108783 0.0990669 0.108324 0.0631115 0.0765456 0.0623952 0.0758162 0.0765456 0.0885207 0.0758162 0.0878561 0.0623952 0.0758162 0.0617601 0.075149 0.0758162 0.0878561 0.075149 0.0872287 0.0885207 0.0990669 0.0878561 0.0985028 0.0990669 0.108324 0.0985028 0.107862 0.0878561 0.0985028 0.0872287 0.0979544 0.0985028 0.107862 0.0979544 0.107402 0.110859 0.118317 0.110494 0.118072 0.118317 0.124964 0.118072 0.124796 0.110494 0.118072 0.110097 0.117793 0.118072 0.124796 0.117793 0.124597 0.124964 0.130866 0.124796 0.130746 0.130866 0.136079 0.130746 0.135985 0.124796 0.130746 0.124597 0.130597 0.130746 0.135985 0.130597 0.135865 0.110097 0.117793 0.109675 0.117486 0.117793 0.124597 0.117486 0.12437 0.109675 0.117486 0.109236 0.117156 0.117486 0.12437 0.117156 0.124118 0.124597 0.130597 0.12437 0.130422 0.130597 0.135865 0.130422 0.135723 0.12437 0.130422 0.124118 0.130224 0.130422 0.135723 0.130224 0.135558 0.136079 0.140656 0.135985 0.140573 0.140656 0.14465 0.140573 0.144566 0.135985 0.140573 0.135865 0.140467 0.140573 0.144566 0.140467 0.144463 0.14465 0.148112 0.144566 0.148019 0.148112 0.151093 0.148019 0.150987 0.144566 0.148019 0.144463 0.147911 0.148019 0.150987 0.147911 0.150868 0.135865 0.140467 0.135723 0.140341 0.140467 0.144463 0.140341 0.144342 0.135723 0.140341 0.135558 0.140195 0.140341 0.144342 0.140195 0.144204 0.144463 0.147911 0.144342 0.147787 0.147911 0.150868 0.147787 0.150735 0.144342 0.147787 0.144204 0.147648 0.147787 0.150735 0.147648 0.15059 0.109236 0.117156 0.108783 0.116807 0.117156 0.124118 0.116807 0.123846 0.108783 0.116807 0.108324 0.116444 0.116807 0.123846 0.116444 0.123556 0.124118 0.130224 0.123846 0.130005 0.130224 0.135558 0.130005 0.135374 0.123846 0.130005 0.123556 0.129767 0.130005 0.135374 0.129767 0.135172 0.108324 0.116444 0.107862 0.11607 0.116444 0.123556 0.11607 0.123251 0.107862 0.11607 0.107402 0.115689 0.11607 0.123251 0.115689 0.122934 0.123556 0.129767 0.123251 0.129514 0.129767 0.135172 0.129514 0.134953 0.123251 0.129514 0.122934 0.129246 0.129514 0.134953 0.129246 0.13472 0.135558 0.140195 0.135374 0.140031 0.140195 0.144204 0.140031 0.144049 0.135374 0.140031 0.135172 0.139851 0.140031 0.144049 0.139851 0.14388 0.144204 0.147648 0.144049 0.147495 0.147648 0.15059 0.147495 0.150432 0.144049 0.147495 0.14388 0.147329 0.147495 0.150432 0.147329 0.150262 0.135172 0.139851 0.134953 0.139655 0.139851 0.14388 0.139655 0.143696 0.134953 0.139655 0.13472 0.139444 0.139655 0.143696 0.139444 0.143498 0.14388 0.147329 0.143696 0.147149 0.147329 0.150262 0.147149 0.150081 0.143696 0.147149 0.143498 0.146957 0.147149 0.150081 0.146957 0.149888 0.151443 0.154231 0.151449 0.154195 0.154231 0.156633 0.154195 0.156559 0.151449 0.154195 0.15144 0.154149 0.154195 0.156559 0.154149 0.156476 0.156633 0.158689 0.156559 0.158578 0.158689 0.160435 0.158578 0.160291 0.156559 0.158578 0.156476 0.158462 0.158578 0.160291 0.158462 0.160144 0.15144 0.154149 0.151417 0.154092 0.154149 0.156476 0.154092 0.156386 0.151417 0.154092 0.151381 0.154025 0.154092 0.156386 0.154025 0.156288 0.156476 0.158462 0.156386 0.158341 0.158462 0.160144 0.158341 0.159994 0.156386 0.158341 0.156288 0.158213 0.158341 0.159994 0.158213 0.159839 0.160435 0.161908 0.160291 0.161735 0.161908 0.163143 0.161735 0.162944 0.160291 0.161735 0.160144 0.16156 0.161735 0.162944 0.16156 0.162744 0.163143 0.164171 0.162944 0.163949 0.164171 0.165021 0.163949 0.16478 0.162944 0.163949 0.162744 0.163727 0.163949 0.16478 0.163727 0.164538 0.160144 0.16156 0.159994 0.161383 0.16156 0.162744 0.161383 0.162543 0.159994 0.161383 0.159839 0.161203 0.161383 0.162543 0.161203 0.16234 0.162744 0.163727 0.162543 0.163505 0.163727 0.164538 0.163505 0.164297 0.162543 0.163505 0.16234 0.163281 0.163505 0.164297 0.163281 0.164056 0.151381 0.154025 0.15133 0.153946 0.154025 0.156288 0.153946 0.156182 0.15133 0.153946 0.151265 0.153856 0.153946 0.156182 0.153856 0.156067 0.156288 0.158213 0.156182 0.15808 0.158213 0.159839 0.15808 0.15968 0.156182 0.15808 0.156067 0.15794 0.15808 0.15968 0.15794 0.159516 0.151265 0.153856 0.151186 0.153755 0.153856 0.156067 0.153755 0.155943 0.151186 0.153755 0.151093 0.153643 0.153755 0.155943 0.153643 0.15581 0.156067 0.15794 0.155943 0.157793 0.15794 0.159516 0.157793 0.159346 0.155943 0.157793 0.15581 0.157639 0.157793 0.159346 0.157639 0.159171 0.159839 0.161203 0.15968 0.16102 0.161203 0.16234 0.16102 0.162135 0.15968 0.16102 0.159516 0.160833 0.16102 0.162135 0.160833 0.161927 0.16234 0.163281 0.162135 0.163057 0.163281 0.164056 0.163057 0.163813 0.162135 0.163057 0.161927 0.16283 0.163057 0.163813 0.16283 0.16357 0.159516 0.160833 0.159346 0.160643 0.160833 0.161927 0.160643 0.161717 0.159346 0.160643 0.159171 0.160448 0.160643 0.161717 0.160448 0.161504 0.161927 0.16283 0.161717 0.162602 0.16283 0.16357 0.162602 0.163326 0.161717 0.162602 0.161504 0.162372 0.162602 0.163326 0.162372 0.16308 0.165021 0.16572 0.16478 0.165461 0.16572 0.166291 0.165461 0.166018 0.16478 0.165461 0.164538 0.165203 0.165461 0.166018 0.165203 0.165746 0.166291 0.166755 0.166018 0.166469 0.166755 0.167128 0.166469 0.166832 0.166018 0.166469 0.165746 0.166185 0.166469 0.166832 0.166185 0.166538 0.164538 0.165203 0.164297 0.164946 0.165203 0.165746 0.164946 0.165474 0.164297 0.164946 0.164056 0.164689 0.164946 0.165474 0.164689 0.165203 0.165746 0.166185 0.165474 0.165901 0.166185 0.166538 0.165901 0.166245 0.165474 0.165901 0.165203 0.165618 0.165901 0.166245 0.165618 0.165952 0.167128 0.167428 0.166832 0.167124 0.167428 0.167666 0.167124 0.167355 0.166832 0.167124 0.166538 0.166821 0.167124 0.167355 0.166821 0.167046 0.167666 0.167855 0.167355 0.167539 0.167855 0.168004 0.167539 0.167683 0.167355 0.167539 0.167046 0.167223 0.167539 0.167683 0.167223 0.167363 0.166538 0.166821 0.166245 0.166519 0.166821 0.167046 0.166519 0.166737 0.166245 0.166519 0.165952 0.166218 0.166519 0.166737 0.166218 0.166429 0.167046 0.167223 0.166737 0.166909 0.167223 0.167363 0.166909 0.167044 0.166737 0.166909 0.166429 0.166595 0.166909 0.167044 0.166595 0.166725 0.164056 0.164689 0.163813 0.164431 0.164689 0.165203 0.164431 0.164932 0.163813 0.164431 0.16357 0.164173 0.164431 0.164932 0.164173 0.164661 0.165203 0.165618 0.164932 0.165336 0.165618 0.165952 0.165336 0.16566 0.164932 0.165336 0.164661 0.165054 0.165336 0.16566 0.165054 0.165368 0.16357 0.164173 0.163326 0.163915 0.164173 0.164661 0.163915 0.16439 0.163326 0.163915 0.16308 0.163655 0.163915 0.16439 0.163655 0.164118 0.164661 0.165054 0.16439 0.164772 0.165054 0.165368 0.164772 0.165076 0.16439 0.164772 0.164118 0.164489 0.164772 0.165076 0.164489 0.164785 0.165952 0.166218 0.16566 0.165917 0.166218 0.166429 0.165917 0.166121 0.16566 0.165917 0.165368 0.165617 0.165917 0.166121 0.165617 0.165815 0.166429 0.166595 0.166121 0.166282 0.166595 0.166725 0.166282 0.166407 0.166121 0.166282 0.165815 0.165969 0.166282 0.166407 0.165969 0.16609 0.165368 0.165617 0.165076 0.165318 0.165617 0.165815 0.165318 0.165508 0.165076 0.165318 0.164785 0.165018 0.165318 0.165508 0.165018 0.165202 0.165815 0.165969 0.165508 0.165657 0.165969 0.16609 0.165657 0.165773 0.165508 0.165657 0.165202 0.165345 0.165657 0.165773 0.165345 0.165457 0.151093 0.153643 0.150987 0.15352 0.153643 0.15581 0.15352 0.155668 0.150987 0.15352 0.150868 0.153386 0.15352 0.155668 0.153386 0.155517 0.15581 0.157639 0.155668 0.157477 0.157639 0.159171 0.157477 0.158991 0.155668 0.157477 0.155517 0.157309 0.157477 0.158991 0.157309 0.158805 0.150868 0.153386 0.150735 0.153241 0.153386 0.155517 0.153241 0.155357 0.150735 0.153241 0.15059 0.153085 0.153241 0.155357 0.153085 0.155189 0.155517 0.157309 0.155357 0.157133 0.157309 0.158805 0.157133 0.158612 0.155357 0.157133 0.155189 0.156949 0.157133 0.158612 0.156949 0.158413 0.159171 0.160448 0.158991 0.160249 0.160448 0.161504 0.160249 0.161287 0.158991 0.160249 0.158805 0.160045 0.160249 0.161287 0.160045 0.161067 0.161504 0.162372 0.161287 0.162139 0.162372 0.16308 0.162139 0.162832 0.161287 0.162139 0.161067 0.161903 0.162139 0.162832 0.161903 0.162583 0.158805 0.160045 0.158612 0.159836 0.160045 0.161067 0.159836 0.160843 0.158612 0.159836 0.158413 0.159623 0.159836 0.160843 0.159623 0.160614 0.161067 0.161903 0.160843 0.161664 0.161903 0.162583 0.161664 0.16233 0.160843 0.161664 0.160614 0.161422 0.161664 0.16233 0.161422 0.162076 0.15059 0.153085 0.150432 0.152919 0.153085 0.155189 0.152919 0.15501 0.150432 0.152919 0.150262 0.152742 0.152919 0.15501 0.152742 0.154823 0.155189 0.156949 0.15501 0.156758 0.156949 0.158413 0.156758 0.158208 0.15501 0.156758 0.154823 0.156559 0.156758 0.158208 0.156559 0.157997 0.150262 0.152742 0.150081 0.152555 0.152742 0.154823 0.152555 0.154628 0.150081 0.152555 0.149888 0.152357 0.152555 0.154628 0.152357 0.154423 0.154823 0.156559 0.154628 0.156353 0.156559 0.157997 0.156353 0.157779 0.154628 0.156353 0.154423 0.156139 0.156353 0.157779 0.156139 0.157554 0.158413 0.159623 0.158208 0.159404 0.159623 0.160614 0.159404 0.160382 0.158208 0.159404 0.157997 0.159179 0.159404 0.160382 0.159179 0.160145 0.160614 0.161422 0.160382 0.161177 0.161422 0.162076 0.161177 0.161818 0.160382 0.161177 0.160145 0.160928 0.161177 0.161818 0.160928 0.161558 0.157997 0.159179 0.157779 0.158949 0.159179 0.160145 0.158949 0.159903 0.157779 0.158949 0.157554 0.158714 0.158949 0.159903 0.158714 0.159657 0.160145 0.160928 0.159903 0.160675 0.160928 0.161558 0.160675 0.161294 0.159903 0.160675 0.159657 0.160418 0.160675 0.161294 0.160418 0.161027 0.16308 0.163655 0.162832 0.163394 0.163655 0.164118 0.163394 0.163845 0.162832 0.163394 0.162583 0.163131 0.163394 0.163845 0.163131 0.163572 0.164118 0.164489 0.163845 0.164206 0.164489 0.164785 0.164206 0.164493 0.163845 0.164206 0.163572 0.163922 0.164206 0.164493 0.163922 0.1642 0.162583 0.163131 0.16233 0.162867 0.163131 0.163572 0.162867 0.163296 0.16233 0.162867 0.162076 0.162601 0.162867 0.163296 0.162601 0.16302 0.163572 0.163922 0.163296 0.163638 0.163922 0.1642 0.163638 0.163907 0.163296 0.163638 0.16302 0.163352 0.163638 0.163907 0.163352 0.163613 0.164785 0.165018 0.164493 0.164718 0.165018 0.165202 0.164718 0.164896 0.164493 0.164718 0.1642 0.164419 0.164718 0.164896 0.164419 0.164589 0.165202 0.165345 0.164896 0.165034 0.165345 0.165457 0.165034 0.16514 0.164896 0.165034 0.164589 0.164722 0.165034 0.16514 0.164722 0.164824 0.1642 0.164419 0.163907 0.164118 0.164419 0.164589 0.164118 0.164283 0.163907 0.164118 0.163613 0.163817 0.164118 0.164283 0.163817 0.163976 0.164589 0.164722 0.164283 0.16441 0.164722 0.164824 0.16441 0.164508 0.164283 0.16441 0.163976 0.164098 0.16441 0.164508 0.164098 0.164191 0.162076 0.162601 0.161818 0.162332 0.162601 0.16302 0.162332 0.162741 0.161818 0.162332 0.161558 0.162062 0.162332 0.162741 0.162062 0.162461 0.16302 0.163352 0.162741 0.163064 0.163352 0.163613 0.163064 0.163318 0.162741 0.163064 0.162461 0.162776 0.163064 0.163318 0.162776 0.163022 0.161558 0.162062 0.161294 0.161788 0.162062 0.162461 0.161788 0.162179 0.161294 0.161788 0.161027 0.161512 0.161788 0.162179 0.161512 0.161894 0.162461 0.162776 0.162179 0.162485 0.162776 0.163022 0.162485 0.162724 0.162179 0.162485 0.161894 0.162193 0.162485 0.162724 0.162193 0.162426 0.163613 0.163817 0.163318 0.163515 0.163817 0.163976 0.163515 0.163668 0.163318 0.163515 0.163022 0.163213 0.163515 0.163668 0.163213 0.16336 0.163976 0.164098 0.163668 0.163785 0.164098 0.164191 0.163785 0.163874 0.163668 0.163785 0.16336 0.163472 0.163785 0.163874 0.163472 0.163557 0.163022 0.163213 0.162724 0.162909 0.163213 0.16336 0.162909 0.163051 0.162724 0.162909 0.162426 0.162604 0.162909 0.163051 0.162604 0.162741 0.16336 0.163472 0.163051 0.163158 0.163472 0.163557 0.163158 0.16324 0.163051 0.163158 0.162741 0.162844 0.163158 0.16324 0.162844 0.162922 0 0.0163022 0 0.0161499 0.0163022 0.0320557 0.0161499 0.0317493 0 0.0161499 0 0.0160201 0.0161499 0.0317493 0.0160201 0.0314865 0.0320557 0.047286 0.0317493 0.0468316 0.047286 0.0617601 0.0468316 0.0611953 0.0317493 0.0468316 0.0314865 0.0464351 0.0468316 0.0611953 0.0464351 0.0606917 0 0.0160201 0 0.0159084 0.0160201 0.0314865 0.0159084 0.031259 0 0.0159084 0 0.0158114 0.0159084 0.031259 0.0158114 0.0310606 0.0314865 0.0464351 0.031259 0.0460872 0.0464351 0.0606917 0.0460872 0.0602411 0.031259 0.0460872 0.0310606 0.04578 0.0460872 0.0602411 0.04578 0.0598365 0.0617601 0.075149 0.0611953 0.0745391 0.075149 0.0872287 0.0745391 0.0866383 0.0611953 0.0745391 0.0606917 0.0739814 0.0745391 0.0866383 0.0739814 0.0860842 0.0872287 0.0979544 0.0866383 0.0974241 0.0979544 0.107402 0.0974241 0.106945 0.0866383 0.0974241 0.0860842 0.0969137 0.0974241 0.106945 0.0969137 0.106496 0.0606917 0.0739814 0.0602411 0.0734712 0.0739814 0.0860842 0.0734712 0.085565 0.0602411 0.0734712 0.0598365 0.0730038 0.0734712 0.085565 0.0730038 0.0850788 0.0860842 0.0969137 0.085565 0.096424 0.0969137 0.106496 0.096424 0.106055 0.085565 0.096424 0.0850788 0.0959554 0.096424 0.106055 0.0959554 0.105625 0 0.0158114 0 0.0157263 0.0158114 0.0310606 0.0157263 0.0308861 0 0.0157263 0 0.0156509 0.0157263 0.0308861 0.0156509 0.0307312 0.0310606 0.04578 0.0308861 0.0455071 0.04578 0.0598365 0.0455071 0.0594719 0.0308861 0.0455071 0.0307312 0.0452632 0.0455071 0.0594719 0.0452632 0.059142 0 0.0156509 0 0.0155835 0.0156509