# vtk DataFile Version 3.0
#This file was generated by the deal.II library on 2022/1/6 at 22:45:44
ASCII
DATASET UNSTRUCTURED_GRID

POINTS 16384 double
0 0 0
0.1875 0 0
0 0.046875 0
0.1875 0.046875 0
0.1875 0 0
0.375 0 0
0.1875 0.046875 0
0.375 0.046875 0
0 0.046875 0
0.1875 0.046875 0
0 0.09375 0
0.1875 0.09375 0
0.1875 0.046875 0
0.375 0.046875 0
0.1875 0.09375 0
0.375 0.09375 0
0.375 0 0
0.5625 0 0
0.375 0.046875 0
0.5625 0.046875 0
0.5625 0 0
0.75 0 0
0.5625 0.046875 0
0.75 0.046875 0
0.375 0.046875 0
0.5625 0.046875 0
0.375 0.09375 0
0.5625 0.09375 0
0.5625 0.046875 0
0.75 0.046875 0
0.5625 0.09375 0
0.75 0.09375 0
0 0.09375 0
0.1875 0.09375 0
0 0.140625 0
0.1875 0.140625 0
0.1875 0.09375 0
0.375 0.09375 0
0.1875 0.140625 0
0.375 0.140625 0
0 0.140625 0
0.1875 0.140625 0
0 0.1875 0
0.1875 0.1875 0
0.1875 0.140625 0
0.375 0.140625 0
0.1875 0.1875 0
0.375 0.1875 0
0.375 0.09375 0
0.5625 0.09375 0
0.375 0.140625 0
0.5625 0.140625 0
0.5625 0.09375 0
0.75 0.09375 0
0.5625 0.140625 0
0.75 0.140625 0
0.375 0.140625 0
0.5625 0.140625 0
0.375 0.1875 0
0.5625 0.1875 0
0.5625 0.140625 0
0.75 0.140625 0
0.5625 0.1875 0
0.75 0.1875 0
0.75 0 0
0.9375 0 0
0.75 0.046875 0
0.9375 0.046875 0
0.9375 0 0
1.125 0 0
0.9375 0.046875 0
1.125 0.046875 0
0.75 0.046875 0
0.9375 0.046875 0
0.75 0.09375 0
0.9375 0.09375 0
0.9375 0.046875 0
1.125 0.046875 0
0.9375 0.09375 0
1.125 0.09375 0
1.125 0 0
1.3125 0 0
1.125 0.046875 0
1.3125 0.046875 0
1.3125 0 0
1.5 0 0
1.3125 0.046875 0
1.5 0.046875 0
1.125 0.046875 0
1.3125 0.046875 0
1.125 0.09375 0
1.3125 0.09375 0
1.3125 0.046875 0
1.5 0.046875 0
1.3125 0.09375 0
1.5 0.09375 0
0.75 0.09375 0
0.9375 0.09375 0
0.75 0.140625 0
0.9375 0.140625 0
0.9375 0.09375 0
1.125 0.09375 0
0.9375 0.140625 0
1.125 0.140625 0
0.75 0.140625 0
0.9375 0.140625 0
0.75 0.1875 0
0.9375 0.1875 0
0.9375 0.140625 0
1.125 0.140625 0
0.9375 0.1875 0
1.125 0.1875 0
1.125 0.09375 0
1.3125 0.09375 0
1.125 0.140625 0
1.3125 0.140625 0
1.3125 0.09375 0
1.5 0.09375 0
1.3125 0.140625 0
1.5 0.140625 0
1.125 0.140625 0
1.3125 0.140625 0
1.125 0.1875 0
1.3125 0.1875 0
1.3125 0.140625 0
1.5 0.140625 0
1.3125 0.1875 0
1.5 0.1875 0
0 0.1875 0
0.1875 0.1875 0
0 0.234375 0
0.1875 0.234375 0
0.1875 0.1875 0
0.375 0.1875 0
0.1875 0.234375 0
0.375 0.234375 0
0 0.234375 0
0.1875 0.234375 0
0 0.28125 0
0.1875 0.28125 0
0.1875 0.234375 0
0.375 0.234375 0
0.1875 0.28125 0
0.375 0.28125 0
0.375 0.1875 0
0.5625 0.1875 0
0.375 0.234375 0
0.5625 0.234375 0
0.5625 0.1875 0
0.75 0.1875 0
0.5625 0.234375 0
0.75 0.234375 0
0.375 0.234375 0
0.5625 0.234375 0
0.375 0.28125 0
0.5625 0.28125 0
0.5625 0.234375 0
0.75 0.234375 0
0.5625 0.28125 0
0.75 0.28125 0
0 0.28125 0
0.1875 0.28125 0
0 0.328125 0
0.1875 0.328125 0
0.1875 0.28125 0
0.375 0.28125 0
0.1875 0.328125 0
0.375 0.328125 0
0 0.328125 0
0.1875 0.328125 0
0 0.375 0
0.1875 0.375 0
0.1875 0.328125 0
0.375 0.328125 0
0.1875 0.375 0
0.375 0.375 0
0.375 0.28125 0
0.5625 0.28125 0
0.375 0.328125 0
0.5625 0.328125 0
0.5625 0.28125 0
0.75 0.28125 0
0.5625 0.328125 0
0.75 0.328125 0
0.375 0.328125 0
0.5625 0.328125 0
0.375 0.375 0
0.5625 0.375 0
0.5625 0.328125 0
0.75 0.328125 0
0.5625 0.375 0
0.75 0.375 0
0.75 0.1875 0
0.9375 0.1875 0
0.75 0.234375 0
0.9375 0.234375 0
0.9375 0.1875 0
1.125 0.1875 0
0.9375 0.234375 0
1.125 0.234375 0
0.75 0.234375 0
0.9375 0.234375 0
0.75 0.28125 0
0.9375 0.28125 0
0.9375 0.234375 0
1.125 0.234375 0
0.9375 0.28125 0
1.125 0.28125 0
1.125 0.1875 0
1.3125 0.1875 0
1.125 0.234375 0
1.3125 0.234375 0
1.3125 0.1875 0
1.5 0.1875 0
1.3125 0.234375 0
1.5 0.234375 0
1.125 0.234375 0
1.3125 0.234375 0
1.125 0.28125 0
1.3125 0.28125 0
1.3125 0.234375 0
1.5 0.234375 0
1.3125 0.28125 0
1.5 0.28125 0
0.75 0.28125 0
0.9375 0.28125 0
0.75 0.328125 0
0.9375 0.328125 0
0.9375 0.28125 0
1.125 0.28125 0
0.9375 0.328125 0
1.125 0.328125 0
0.75 0.328125 0
0.9375 0.328125 0
0.75 0.375 0
0.9375 0.375 0
0.9375 0.328125 0
1.125 0.328125 0
0.9375 0.375 0
1.125 0.375 0
1.125 0.28125 0
1.3125 0.28125 0
1.125 0.328125 0
1.3125 0.328125 0
1.3125 0.28125 0
1.5 0.28125 0
1.3125 0.328125 0
1.5 0.328125 0
1.125 0.328125 0
1.3125 0.328125 0
1.125 0.375 0
1.3125 0.375 0
1.3125 0.328125 0
1.5 0.328125 0
1.3125 0.375 0
1.5 0.375 0
1.5 0 0
1.6875 0 0
1.5 0.046875 0
1.6875 0.046875 0
1.6875 0 0
1.875 0 0
1.6875 0.046875 0
1.875 0.046875 0
1.5 0.046875 0
1.6875 0.046875 0
1.5 0.09375 0
1.6875 0.09375 0
1.6875 0.046875 0
1.875 0.046875 0
1.6875 0.09375 0
1.875 0.09375 0
1.875 0 0
2.0625 0 0
1.875 0.046875 0
2.0625 0.046875 0
2.0625 0 0
2.25 0 0
2.0625 0.046875 0
2.25 0.046875 0
1.875 0.046875 0
2.0625 0.046875 0
1.875 0.09375 0
2.0625 0.09375 0
2.0625 0.046875 0
2.25 0.046875 0
2.0625 0.09375 0
2.25 0.09375 0
1.5 0.09375 0
1.6875 0.09375 0
1.5 0.140625 0
1.6875 0.140625 0
1.6875 0.09375 0
1.875 0.09375 0
1.6875 0.140625 0
1.875 0.140625 0
1.5 0.140625 0
1.6875 0.140625 0
1.5 0.1875 0
1.6875 0.1875 0
1.6875 0.140625 0
1.875 0.140625 0
1.6875 0.1875 0
1.875 0.1875 0
1.875 0.09375 0
2.0625 0.09375 0
1.875 0.140625 0
2.0625 0.140625 0
2.0625 0.09375 0
2.25 0.09375 0
2.0625 0.140625 0
2.25 0.140625 0
1.875 0.140625 0
2.0625 0.140625 0
1.875 0.1875 0
2.0625 0.1875 0
2.0625 0.140625 0
2.25 0.140625 0
2.0625 0.1875 0
2.25 0.1875 0
2.25 0 0
2.4375 0 0
2.25 0.046875 0
2.4375 0.046875 0
2.4375 0 0
2.625 0 0
2.4375 0.046875 0
2.625 0.046875 0
2.25 0.046875 0
2.4375 0.046875 0
2.25 0.09375 0
2.4375 0.09375 0
2.4375 0.046875 0
2.625 0.046875 0
2.4375 0.09375 0
2.625 0.09375 0
2.625 0 0
2.8125 0 0
2.625 0.046875 0
2.8125 0.046875 0
2.8125 0 0
3 0 0
2.8125 0.046875 0
3 0.046875 0
2.625 0.046875 0
2.8125 0.046875 0
2.625 0.09375 0
2.8125 0.09375 0
2.8125 0.046875 0
3 0.046875 0
2.8125 0.09375 0
3 0.09375 0
2.25 0.09375 0
2.4375 0.09375 0
2.25 0.140625 0
2.4375 0.140625 0
2.4375 0.09375 0
2.625 0.09375 0
2.4375 0.140625 0
2.625 0.140625 0
2.25 0.140625 0
2.4375 0.140625 0
2.25 0.1875 0
2.4375 0.1875 0
2.4375 0.140625 0
2.625 0.140625 0
2.4375 0.1875 0
2.625 0.1875 0
2.625 0.09375 0
2.8125 0.09375 0
2.625 0.140625 0
2.8125 0.140625 0
2.8125 0.09375 0
3 0.09375 0
2.8125 0.140625 0
3 0.140625 0
2.625 0.140625 0
2.8125 0.140625 0
2.625 0.1875 0
2.8125 0.1875 0
2.8125 0.140625 0
3 0.140625 0
2.8125 0.1875 0
3 0.1875 0
1.5 0.1875 0
1.6875 0.1875 0
1.5 0.234375 0
1.6875 0.234375 0
1.6875 0.1875 0
1.875 0.1875 0
1.6875 0.234375 0
1.875 0.234375 0
1.5 0.234375 0
1.6875 0.234375 0
1.5 0.28125 0
1.6875 0.28125 0
1.6875 0.234375 0
1.875 0.234375 0
1.6875 0.28125 0
1.875 0.28125 0
1.875 0.1875 0
2.0625 0.1875 0
1.875 0.234375 0
2.0625 0.234375 0
2.0625 0.1875 0
2.25 0.1875 0
2.0625 0.234375 0
2.25 0.234375 0
1.875 0.234375 0
2.0625 0.234375 0
1.875 0.28125 0
2.0625 0.28125 0
2.0625 0.234375 0
2.25 0.234375 0
2.0625 0.28125 0
2.25 0.28125 0
1.5 0.28125 0
1.6875 0.28125 0
1.5 0.328125 0
1.6875 0.328125 0
1.6875 0.28125 0
1.875 0.28125 0
1.6875 0.328125 0
1.875 0.328125 0
1.5 0.328125 0
1.6875 0.328125 0
1.5 0.375 0
1.6875 0.375 0
1.6875 0.328125 0
1.875 0.328125 0
1.6875 0.375 0
1.875 0.375 0
1.875 0.28125 0
2.0625 0.28125 0
1.875 0.328125 0
2.0625 0.328125 0
2.0625 0.28125 0
2.25 0.28125 0
2.0625 0.328125 0
2.25 0.328125 0
1.875 0.328125 0
2.0625 0.328125 0
1.875 0.375 0
2.0625 0.375 0
2.0625 0.328125 0
2.25 0.328125 0
2.0625 0.375 0
2.25 0.375 0
2.25 0.1875 0
2.4375 0.1875 0
2.25 0.234375 0
2.4375 0.234375 0
2.4375 0.1875 0
2.625 0.1875 0
2.4375 0.234375 0
2.625 0.234375 0
2.25 0.234375 0
2.4375 0.234375 0
2.25 0.28125 0
2.4375 0.28125 0
2.4375 0.234375 0
2.625 0.234375 0
2.4375 0.28125 0
2.625 0.28125 0
2.625 0.1875 0
2.8125 0.1875 0
2.625 0.234375 0
2.8125 0.234375 0
2.8125 0.1875 0
3 0.1875 0
2.8125 0.234375 0
3 0.234375 0
2.625 0.234375 0
2.8125 0.234375 0
2.625 0.28125 0
2.8125 0.28125 0
2.8125 0.234375 0
3 0.234375 0
2.8125 0.28125 0
3 0.28125 0
2.25 0.28125 0
2.4375 0.28125 0
2.25 0.328125 0
2.4375 0.328125 0
2.4375 0.28125 0
2.625 0.28125 0
2.4375 0.328125 0
2.625 0.328125 0
2.25 0.328125 0
2.4375 0.328125 0
2.25 0.375 0
2.4375 0.375 0
2.4375 0.328125 0
2.625 0.328125 0
2.4375 0.375 0
2.625 0.375 0
2.625 0.28125 0
2.8125 0.28125 0
2.625 0.328125 0
2.8125 0.328125 0
2.8125 0.28125 0
3 0.28125 0
2.8125 0.328125 0
3 0.328125 0
2.625 0.328125 0
2.8125 0.328125 0
2.625 0.375 0
2.8125 0.375 0
2.8125 0.328125 0
3 0.328125 0
2.8125 0.375 0
3 0.375 0
0 0.375 0
0.1875 0.375 0
0 0.421875 0
0.1875 0.421875 0
0.1875 0.375 0
0.375 0.375 0
0.1875 0.421875 0
0.375 0.421875 0
0 0.421875 0
0.1875 0.421875 0
0 0.46875 0
0.1875 0.46875 0
0.1875 0.421875 0
0.375 0.421875 0
0.1875 0.46875 0
0.375 0.46875 0
0.375 0.375 0
0.5625 0.375 0
0.375 0.421875 0
0.5625 0.421875 0
0.5625 0.375 0
0.75 0.375 0
0.5625 0.421875 0
0.75 0.421875 0
0.375 0.421875 0
0.5625 0.421875 0
0.375 0.46875 0
0.5625 0.46875 0
0.5625 0.421875 0
0.75 0.421875 0
0.5625 0.46875 0
0.75 0.46875 0
0 0.46875 0
0.1875 0.46875 0
0 0.515625 0
0.1875 0.515625 0
0.1875 0.46875 0
0.375 0.46875 0
0.1875 0.515625 0
0.375 0.515625 0
0 0.515625 0
0.1875 0.515625 0
0 0.5625 0
0.1875 0.5625 0
0.1875 0.515625 0
0.375 0.515625 0
0.1875 0.5625 0
0.375 0.5625 0
0.375 0.46875 0
0.5625 0.46875 0
0.375 0.515625 0
0.5625 0.515625 0
0.5625 0.46875 0
0.75 0.46875 0
0.5625 0.515625 0
0.75 0.515625 0
0.375 0.515625 0
0.5625 0.515625 0
0.375 0.5625 0
0.5625 0.5625 0
0.5625 0.515625 0
0.75 0.515625 0
0.5625 0.5625 0
0.75 0.5625 0
0.75 0.375 0
0.9375 0.375 0
0.75 0.421875 0
0.9375 0.421875 0
0.9375 0.375 0
1.125 0.375 0
0.9375 0.421875 0
1.125 0.421875 0
0.75 0.421875 0
0.9375 0.421875 0
0.75 0.46875 0
0.9375 0.46875 0
0.9375 0.421875 0
1.125 0.421875 0
0.9375 0.46875 0
1.125 0.46875 0
1.125 0.375 0
1.3125 0.375 0
1.125 0.421875 0
1.3125 0.421875 0
1.3125 0.375 0
1.5 0.375 0
1.3125 0.421875 0
1.5 0.421875 0
1.125 0.421875 0
1.3125 0.421875 0
1.125 0.46875 0
1.3125 0.46875 0
1.3125 0.421875 0
1.5 0.421875 0
1.3125 0.46875 0
1.5 0.46875 0
0.75 0.46875 0
0.9375 0.46875 0
0.75 0.515625 0
0.9375 0.515625 0
0.9375 0.46875 0
1.125 0.46875 0
0.9375 0.515625 0
1.125 0.515625 0
0.75 0.515625 0
0.9375 0.515625 0
[...]
POINT_DATA 16384
SCALARS x_displacement double 1
LOOKUP_TABLE default
0 0.0324652 0 0.0291717 0.0324652 0.0570153 0.0291717 0.055602 0 0.0291717 0 0.0269037 0.0291717 0.055602 0.0269037 0.0530585 0.0570153 0.0717507 0.055602 0.0706995 0.0717507 0.0764898 0.0706995 0.0759072 0.055602 0.0706995 0.0530585 0.0689299 0.0706995 0.0759072 0.0689299 0.0748601 0 0.0269037 0 0.0250226 0.0269037 0.0530585 0.0250226 0.0496833 0 0.0250226 0 0.0234323 0.0250226 0.0496833 0.0234323 0.0462184 0.0530585 0.0689299 0.0496833 0.0663454 0.0689299 0.0748601 0.0663454 0.0733876 0.0496833 0.0663454 0.0462184 0.0627999 0.0663454 0.0733876 0.0627999 0.0716232 0.0764898 0.0806053 0.0759072 0.08045 0.0806053 0.0850987 0.08045 0.0852429 0.0759072 0.08045 0.0748601 0.0800402 0.08045 0.0852429 0.0800402 0.085194 0.0850987 0.0895481 0.0852429 0.0897919 0.0895481 0.093631 0.0897919 0.0938961 0.0852429 0.0897919 0.085194 0.089902 0.0897919 0.0938961 0.089902 0.0940624 0.0748601 0.0800402 0.0733876 0.0794177 0.0800402 0.085194 0.0794177 0.0849805 0.0733876 0.0794177 0.0716232 0.0786301 0.0794177 0.0849805 0.0786301 0.0846249 0.085194 0.089902 0.0849805 0.0898881 0.089902 0.0940624 0.0898881 0.0941369 0.0849805 0.0898881 0.0846249 0.0897647 0.0898881 0.0941369 0.0897647 0.0941266 0 0.0234323 0 0.0220802 0.0234323 0.0462184 0.0220802 0.0429599 0 0.0220802 0 0.0208861 0.0220802 0.0429599 0.0208861 0.0403795 0.0462184 0.0627999 0.0429599 0.0591758 0.0627999 0.0716232 0.0591758 0.069804 0.0429599 0.0591758 0.0403795 0.0562798 0.0591758 0.069804 0.0562798 0.0679674 0 0.0208861 0 0.0198781 0.0208861 0.0403795 0.0198781 0.0383351 0 0.0198781 0 0.0190477 0.0198781 0.0383351 0.0190477 0.0367078 0.0403795 0.0562798 0.0383351 0.0539701 0.0562798 0.0679674 0.0539701 0.0662419 0.0383351 0.0539701 0.0367078 0.0520868 0.0539701 0.0662419 0.0520868 0.0646777 0.0716232 0.0786301 0.069804 0.0777012 0.0786301 0.0846249 0.0777012 0.0841554 0.069804 0.0777012 0.0679674 0.0766893 0.0777012 0.0841554 0.0766893 0.083594 0.0846249 0.0897647 0.0841554 0.089545 0.0897647 0.0941266 0.089545 0.0940393 0.0841554 0.089545 0.083594 0.0892435 0.089545 0.0940393 0.0892435 0.0938835 0.0679674 0.0766893 0.0662419 0.0756287 0.0766893 0.083594 0.0756287 0.0829656 0.0662419 0.0756287 0.0646777 0.0745616 0.0756287 0.0829656 0.0745616 0.0822898 0.083594 0.0892435 0.0829656 0.0888737 0.0892435 0.0938835 0.0888737 0.0936675 0.0829656 0.0888737 0.0822898 0.0884494 0.0888737 0.0936675 0.0884494 0.0933997 0.093631 0.0972381 0.0938961 0.097481 0.0972381 0.100349 0.097481 0.100544 0.0938961 0.097481 0.0940624 0.0976507 0.097481 0.100544 0.0976507 0.100686 0.100349 0.102983 0.100544 0.103119 0.102983 0.105182 0.103119 0.105252 0.100544 0.103119 0.100686 0.103215 0.103119 0.105252 0.103215 0.105296 0.0940624 0.0976507 0.0941369 0.0977508 0.0976507 0.100686 0.0977508 0.100776 0.0941369 0.0977508 0.0941266 0.0977859 0.0977508 0.100776 0.0977859 0.100817 0.100686 0.103215 0.100776 0.103274 0.103215 0.105296 0.103274 0.105312 0.100776 0.103274 0.100817 0.103296 0.103274 0.105312 0.103296 0.105302 0.105182 0.106994 0.105252 0.107 0.106994 0.108473 0.107 0.108417 0.105252 0.107 0.105296 0.106988 0.107 0.108417 0.106988 0.108351 0.108473 0.109667 0.108417 0.109556 0.109667 0.110622 0.109556 0.110463 0.108417 0.109556 0.108351 0.109439 0.109556 0.110463 0.109439 0.110303 0.105296 0.106988 0.105312 0.106957 0.106988 0.108351 0.106957 0.108273 0.105312 0.106957 0.105302 0.106909 0.106957 0.108273 0.106909 0.108184 0.108351 0.109439 0.108273 0.109317 0.109439 0.110303 0.109317 0.110139 0.108273 0.109317 0.108184 0.109188 0.109317 0.110139 0.109188 0.109973 0.0941266 0.0977859 0.0940393 0.0977606 0.0977859 0.100817 0.0977606 0.100811 0.0940393 0.0977606 0.0938835 0.0976799 0.0977606 0.100811 0.0976799 0.100761 0.100817 0.103296 0.100811 0.103283 0.103296 0.105302 0.103283 0.105267 0.100811 0.103283 0.100761 0.103237 0.103283 0.105267 0.103237 0.105206 0.0938835 0.0976799 0.0936675 0.0975489 0.0976799 0.100761 0.0975489 0.10067 0.0936675 0.0975489 0.0933997 0.0973731 0.0975489 0.10067 0.0973731 0.100543 0.100761 0.103237 0.10067 0.103158 0.103237 0.105206 0.103158 0.105121 0.10067 0.103158 0.100543 0.10305 0.103158 0.105121 0.10305 0.105013 0.105302 0.106909 0.105267 0.106842 0.106909 0.108184 0.106842 0.108082 0.105267 0.106842 0.105206 0.106757 0.106842 0.108082 0.106757 0.107968 0.108184 0.109188 0.108082 0.109051 0.109188 0.109973 0.109051 0.109803 0.108082 0.109051 0.107968 0.108906 0.109051 0.109803 0.108906 0.109627 0.105206 0.106757 0.105121 0.106654 0.106757 0.107968 0.106654 0.107841 0.105121 0.106654 0.105013 0.106534 0.106654 0.107841 0.106534 0.107702 0.107968 0.108906 0.107841 0.108752 0.108906 0.109627 0.108752 0.109447 0.107841 0.108752 0.107702 0.10859 0.108752 0.109447 0.10859 0.109261 0 0.0190477 0 0.0183718 0.0190477 0.0367078 0.0183718 0.0354036 0 0.0183718 0 0.0178241 0.0183718 0.0354036 0.0178241 0.0343513 0.0367078 0.0520868 0.0354036 0.0505311 0.0520868 0.0646777 0.0505311 0.0632805 0.0354036 0.0505311 0.0343513 0.0492347 0.0505311 0.0632805 0.0492347 0.0620409 0 0.0178241 0 0.0173802 0.0178241 0.0343513 0.0173802 0.0334961 0 0.0173802 0 0.0170189 0.0173802 0.0334961 0.0170189 0.0327962 0.0343513 0.0492347 0.0334961 0.048147 0.0492347 0.0620409 0.048147 0.0609444 0.0334961 0.048147 0.0327962 0.0472287 0.048147 0.0609444 0.0472287 0.0599754 0.0646777 0.0745616 0.0632805 0.0735214 0.0745616 0.0822898 0.0735214 0.0815858 0.0632805 0.0735214 0.0620409 0.0725289 0.0735214 0.0815858 0.0725289 0.080871 0.0822898 0.0884494 0.0815858 0.0879828 0.0884494 0.0933997 0.0879828 0.0930883 0.0815858 0.0879828 0.080871 0.0874854 0.0879828 0.0930883 0.0874854 0.0927411 0.0620409 0.0725289 0.0609444 0.0715953 0.0725289 0.080871 0.0715953 0.0801595 0.0609444 0.0715953 0.0599754 0.0707257 0.0715953 0.0801595 0.0707257 0.0794622 0.080871 0.0874854 0.0801595 0.0869674 0.0874854 0.0927411 0.0869674 0.0923653 0.0801595 0.0869674 0.0794622 0.0864379 0.0869674 0.0923653 0.0864379 0.0919677 0 0.0170189 0 0.0167234 0.0170189 0.0327962 0.0167234 0.0322191 0 0.0167234 0 0.0164799 0.0167234 0.0322191 0.0164799 0.0317397 0.0327962 0.0472287 0.0322191 0.0464491 0.0472287 0.0599754 0.0464491 0.0591188 0.0322191 0.0464491 0.0317397 0.0457836 0.0464491 0.0591188 0.0457836 0.0583608 0 0.0164799 0 0.0162777 0.0164799 0.0317397 0.0162777 0.0313381 0 0.0162777 0 0.0161084 0.0162777 0.0313381 0.0161084 0.030999 0.0317397 0.0457836 0.0313381 0.0452121 0.0457836 0.0583608 0.0452121 0.0576886 0.0313381 0.0452121 0.030999 0.0447186 0.0452121 0.0576886 0.0447186 0.0570912 0.0599754 0.0707257 0.0591188 0.0699208 0.0707257 0.0794622 0.0699208 0.0787868 0.0591188 0.0699208 0.0583608 0.069179 0.0699208 0.0787868 0.069179 0.0781384 0.0794622 0.0864379 0.0787868 0.0859046 0.0864379 0.0919677 0.0859046 0.0915541 0.0787868 0.0859046 0.0781384 0.0853737 0.0859046 0.0915541 0.0853737 0.0911302 0.0583608 0.069179 0.0576886 0.0684971 0.069179 0.0781384 0.0684971 0.0775201 0.0576886 0.0684971 0.0570912 0.0678713 0.0684971 0.0775201 0.0678713 0.0769334 0.0781384 0.0853737 0.0775201 0.0848504 0.0853737 0.0911302 0.0848504 0.0907004 0.0775201 0.0848504 0.0769334 0.0843385 0.0848504 0.0907004 0.0843385 0.0902688 0.0933997 0.0973731 0.0930883 0.0971576 0.0973731 0.100543 0.0971576 0.100382 0.0930883 0.0971576 0.0927411 0.0969077 0.0971576 0.100382 0.0969077 0.10019 0.100543 0.10305 0.100382 0.102914 0.10305 0.105013 0.102914 0.104883 0.100382 0.102914 0.10019 0.102752 0.102914 0.104883 0.102752 0.104732 0.0927411 0.0969077 0.0923653 0.0966283 0.0969077 0.10019 0.0966283 0.0999711 0.0923653 0.0966283 0.0919677 0.0963243 0.0966283 0.0999711 0.0963243 0.0997285 0.10019 0.102752 0.0999711 0.102567 0.102752 0.104732 0.102567 0.104562 0.0999711 0.102567 0.0997285 0.102361 0.102567 0.104562 0.102361 0.104374 0.105013 0.106534 0.104883 0.106397 0.106534 0.107702 0.106397 0.10755 0.104883 0.106397 0.104732 0.106244 0.106397 0.10755 0.106244 0.107386 0.107702 0.10859 0.10755 0.108419 0.10859 0.109261 0.108419 0.109069 0.10755 0.108419 0.107386 0.108239 0.108419 0.109069 0.108239 0.108871 0.104732 0.106244 0.104562 0.106075 0.106244 0.107386 0.106075 0.10721 0.104562 0.106075 0.104374 0.105892 0.106075 0.10721 0.105892 0.107022 0.107386 0.108239 0.10721 0.108051 0.108239 0.108871 0.108051 0.108666 0.10721 0.108051 0.107022 0.107853 0.108051 0.108666 0.107853 0.108454 0.0919677 0.0963243 0.0915541 0.096 0.0963243 0.0997285 0.096 0.0994653 0.0915541 0.096 0.0911302 0.0956596 0.096 0.0994653 0.0956596 0.0991844 0.0997285 0.102361 0.0994653 0.102136 0.102361 0.104374 0.102136 0.104169 0.0994653 0.102136 0.0991844 0.101894 0.102136 0.104169 0.101894 0.103949 0.0911302 0.0956596 0.0907004 0.0953068 0.0956596 0.0991844 0.0953068 0.0988888 0.0907004 0.0953068 0.0902688 0.0949451 0.0953068 0.0988888 0.0949451 0.0985809 0.0991844 0.101894 0.0988888 0.101637 0.101894 0.103949 0.101637 0.103715 0.0988888 0.101637 0.0985809 0.101367 0.101637 0.103715 0.101367 0.103469 0.104374 0.105892 0.104169 0.105695 0.105892 0.107022 0.105695 0.106823 0.104169 0.105695 0.103949 0.105484 0.105695 0.106823 0.105484 0.106614 0.107022 0.107853 0.106823 0.107646 0.107853 0.108454 0.107646 0.108236 0.106823 0.107646 0.106614 0.107431 0.107646 0.108236 0.107431 0.108011 0.103949 0.105484 0.103715 0.105262 0.105484 0.106614 0.105262 0.106394 0.103715 0.105262 0.103469 0.105028 0.105262 0.106394 0.105028 0.106164 0.106614 0.107431 0.106394 0.107207 0.107431 0.108011 0.107207 0.10778 0.106394 0.107207 0.106164 0.106975 0.107207 0.10778 0.106975 0.107541 0.110622 0.111382 0.110463 0.111182 0.111382 0.11198 0.111182 0.111746 0.110463 0.111182 0.110303 0.110983 0.111182 0.111746 0.110983 0.111515 0.11198 0.112448 0.111746 0.112187 0.112448 0.112812 0.112187 0.11253 0.111746 0.112187 0.111515 0.11193 0.112187 0.11253 0.11193 0.112251 0.110303 0.110983 0.110139 0.110784 0.110983 0.111515 0.110784 0.111286 0.110139 0.110784 0.109973 0.110584 0.110784 0.111286 0.110584 0.111057 0.111515 0.11193 0.111286 0.111675 0.11193 0.112251 0.111675 0.111976 0.111286 0.111675 0.111057 0.111422 0.111675 0.111976 0.111422 0.111703 0.112812 0.113093 0.11253 0.112794 0.113093 0.113308 0.112794 0.112997 0.11253 0.112794 0.112251 0.112499 0.112794 0.112997 0.112499 0.112689 0.113308 0.113471 0.112997 0.113151 0.113471 0.113594 0.113151 0.113267 0.112997 0.113151 0.112689 0.112834 0.113151 0.113267 0.112834 0.112944 0.112251 0.112499 0.111976 0.112207 0.112499 0.112689 0.112207 0.112385 0.111976 0.112207 0.111703 0.111918 0.112207 0.112385 0.111918 0.112083 0.112689 0.112834 0.112385 0.11252 0.112834 0.112944 0.11252 0.112622 0.112385 0.11252 0.112083 0.112208 0.11252 0.112622 0.112208 0.112303 0.109973 0.110584 0.109803 0.110383 0.110584 0.111057 0.110383 0.110829 0.109803 0.110383 0.109627 0.11018 0.110383 0.110829 0.11018 0.1106 0.111057 0.111422 0.110829 0.111171 0.111422 0.111703 0.111171 0.111432 0.110829 0.111171 0.1106 0.11092 0.111171 0.111432 0.11092 0.111163 0.109627 0.11018 0.109447 0.109973 0.11018 0.1106 0.109973 0.110371 0.109447 0.109973 0.109261 0.109764 0.109973 0.110371 0.109764 0.11014 0.1106 0.11092 0.110371 0.11067 0.11092 0.111163 0.11067 0.110895 0.110371 0.11067 0.11014 0.110419 0.11067 0.110895 0.110419 0.110627 0.111703 0.111918 0.111432 0.111632 0.111918 0.112083 0.111632 0.111784 0.111432 0.111632 0.111163 0.111347 0.111632 0.111784 0.111347 0.111486 0.112083 0.112208 0.111784 0.111899 0.112208 0.112303 0.111899 0.111986 0.111784 0.111899 0.111486 0.111592 0.111899 0.111986 0.111592 0.111671 0.111163 0.111347 0.110895 0.111064 0.111347 0.111486 0.111064 0.111191 0.110895 0.111064 0.110627 0.110781 0.111064 0.111191 0.110781 0.110896 0.111486 0.111592 0.111191 0.111286 0.111592 0.111671 0.111286 0.111358 0.111191 0.111286 0.110896 0.110981 0.111286 0.111358 0.110981 0.111045 0.113594 0.113686 0.113267 0.113355 0.113686 0.113753 0.113355 0.113419 0.113267 0.113355 0.112944 0.113026 0.113355 0.113419 0.113026 0.113087 0.113753 0.113802 0.113419 0.113467 0.113802 0.113837 0.113467 0.113501 0.113419 0.113467 0.113087 0.113132 0.113467 0.113501 0.113132 0.113165 0.112944 0.113026 0.112622 0.1127 0.113026 0.113087 0.1127 0.112757 0.112622 0.1127 0.112303 0.112375 0.1127 0.112757 0.112375 0.112429 0.113087 0.113132 0.112757 0.1128 0.113132 0.113165 0.1128 0.112831 0.112757 0.1128 0.112429 0.112468 0.1128 0.112831 0.112468 0.112498 0.113837 0.113862 0.113501 0.113525 0.113862 0.113879 0.113525 0.113542 0.113501 0.113525 0.113165 0.113189 0.113525 0.113542 0.113189 0.113205 0.113879 0.11389 0.113542 0.113553 0.11389 0.113897 0.113553 0.11356 0.113542 0.113553 0.113205 0.113216 0.113553 0.11356 0.113216 0.113224 0.113165 0.113189 0.112831 0.112853 0.113189 0.113205 0.112853 0.112869 0.112831 0.112853 0.112498 0.112519 0.112853 0.112869 0.112519 0.112534 0.113205 0.113216 0.112869 0.11288 0.113216 0.113224 0.11288 0.112887 0.112869 0.11288 0.112534 0.112544 0.11288 0.112887 0.112544 0.112551 0.112303 0.112375 0.111986 0.112052 0.112375 0.112429 0.112052 0.112102 0.111986 0.112052 0.111671 0.111731 0.112052 0.112102 0.111731 0.111776 0.112429 0.112468 0.112102 0.112138 0.112468 0.112498 0.112138 0.112165 0.112102 0.112138 0.111776 0.111809 0.112138 0.112165 0.111809 0.111834 0.111671 0.111731 0.111358 0.111411 0.111731 0.111776 0.111411 0.111452 0.111358 0.111411 0.111045 0.111093 0.111411 0.111452 0.111093 0.111128 0.111776 0.111809 0.111452 0.111481 0.111809 0.111834 0.111481 0.111504 0.111452 0.111481 0.111128 0.111154 0.111481 0.111504 0.111154 0.111174 0.112498 0.112519 0.112165 0.112185 0.112519 0.112534 0.112185 0.112199 0.112165 0.112185 0.111834 0.111852 0.112185 0.112199 0.111852 0.111865 0.112534 0.112544 0.112199 0.112209 0.112544 0.112551 0.112209 0.112216 0.112199 0.112209 0.111865 0.111874 0.112209 0.112216 0.111874 0.11188 0.111834 0.111852 0.111504 0.11152 0.111852 0.111865 0.11152 0.111531 0.111504 0.11152 0.111174 0.111188 0.11152 0.111531 0.111188 0.111198 0.111865 0.111874 0.111531 0.11154 0.111874 0.11188 0.11154 0.111545 0.111531 0.11154 0.111198 0.111206 0.11154 0.111545 0.111206 0.111211 0.109261 0.109764 0.109069 0.109551 0.109764 0.11014 0.109551 0.109906 0.109069 0.109551 0.108871 0.109333 0.109551 0.109906 0.109333 0.10967 0.11014 0.110419 0.109906 0.110167 0.110419 0.110627 0.110167 0.110359 0.109906 0.110167 0.10967 0.109914 0.110167 0.110359 0.109914 0.11009 0.108871 0.109333 0.108666 0.109112 0.109333 0.10967 0.109112 0.109431 0.108666 0.109112 0.108454 0.108885 0.109112 0.109431 0.108885 0.109189 0.10967 0.109914 0.109431 0.109659 0.109914 0.11009 0.109659 0.109821 0.109431 0.109659 0.109189 0.109402 0.109659 0.109821 0.109402 0.10955 0.110627 0.110781 0.110359 0.110499 0.110781 0.110896 0.110499 0.110602 0.110359 0.110499 0.11009 0.110217 0.110499 0.110602 0.110217 0.110309 0.110896 0.110981 0.110602 0.110678 0.110981 0.111045 0.110678 0.110734 0.110602 0.110678 0.110309 0.110375 0.110678 0.110734 0.110375 0.110423 0.11009 0.110217 0.109821 0.109935 0.110217 0.110309 0.109935 0.110015 0.109821 0.109935 0.10955 0.109652 0.109935 0.110015 0.109652 0.109722 0.110309 0.110375 0.110015 0.110072 0.110375 0.110423 0.110072 0.110113 0.110015 0.110072 0.109722 0.10977 0.110072 0.110113 0.10977 0.109803 0.108454 0.108885 0.108236 0.108653 0.108885 0.109189 0.108653 0.108944 0.108236 0.108653 0.108011 0.108417 0.108653 0.108944 0.108417 0.108694 0.109189 0.109402 0.108944 0.109143 0.109402 0.10955 0.109143 0.109278 0.108944 0.109143 0.108694 0.108881 0.109143 0.109278 0.108881 0.109004 0.108011 0.108417 0.10778 0.108175 0.108417 0.108694 0.108175 0.108441 0.10778 0.108175 0.107541 0.107927 0.108175 0.108441 0.107927 0.108184 0.108694 0.108881 0.108441 0.108616 0.108881 0.109004 0.108616 0.108728 0.108441 0.108616 0.108184 0.108348 0.108616 0.108728 0.108348 0.10845 0.10955 0.109652 0.109278 0.109368 0.109652 0.109722 0.109368 0.109428 0.109278 0.109368 0.109004 0.109083 0.109368 0.109428 0.109083 0.109133 0.109722 0.10977 0.109428 0.109467 0.10977 0.109803 0.109467 0.109493 0.109428 0.109467 0.109133 0.109164 0.109467 0.109493 0.109164 0.109183 0.109004 0.109083 0.108728 0.108797 0.109083 0.109133 0.108797 0.108838 0.108728 0.108797 0.10845 0.108509 0.108797 0.108838 0.108509 0.108541 0.109133 0.109164 0.108838 0.108861 0.109164 0.109183 0.108861 0.108872 0.108838 0.108861 0.108541 0.108556 0.108861 0.108872 0.108556 0.108562 0.111045 0.111093 0.110734 0.110775 0.111093 0.111128 0.110775 0.110805 0.110734 0.110775 0.110423 0.110458 0.110775 0.110805 0.110458 0.110484 0.111128 0.111154 0.110805 0.110828 0.111154 0.111174 0.110828 0.110845 0.110805 0.110828 0.110484 0.110502 0.110828 0.110845 0.110502 0.110516 0.110423 0.110458 0.110113 0.110141 0.110458 0.110484 0.110141 0.110162 0.110113 0.110141 0.109803 0.109825 0.110141 0.110162 0.109825 0.109841 0.110484 0.110502 0.110162 0.110177 0.110502 0.110516 0.110177 0.110188 0.110162 0.110177 0.109841 0.109852 0.110177 0.110188 0.109852 0.10986 0.111174 0.111188 0.110845 0.110857 0.111188 0.111198 0.110857 0.110866 0.110845 0.110857 0.110516 0.110526 0.110857 0.110866 0.110526 0.110533 0.111198 0.111206 0.110866 0.110872 0.111206 0.111211 0.110872 0.110876 0.110866 0.110872 0.110533 0.110539 0.110872 0.110876 0.110539 0.110542 0.110516 0.110526 0.110188 0.110196 0.110526 0.110533 0.110196 0.110201 0.110188 0.110196 0.10986 0.109866 0.110196 0.110201 0.109866 0.10987 0.110533 0.110539 0.110201 0.110205 0.110539 0.110542 0.110205 0.110208 0.110201 0.110205 0.10987 0.109872 0.110205 0.110208 0.109872 0.109874 0.109803 0.109825 0.109493 0.10951 0.109825 0.109841 0.10951 0.10952 0.109493 0.10951 0.109183 0.109194 0.10951 0.10952 0.109194 0.1092 0.109841 0.109852 0.10952 0.109528 0.109852 0.10986 0.109528 0.109533 0.10952 0.109528 0.1092 0.109203 0.109528 0.109533 0.109203 0.109205 0.109183 0.109194 0.108872 0.108878 0.109194 0.1092 0.108878 0.108879 0.108872 0.108878 0.108562 0.108561 0.108878 0.108879 0.108561 0.108559 0.1092 0.109203 0.108879 0.108879 0.109203 0.109205 0.108879 0.108878 0.108879 0.108879 0.108559 0.108555 0.108879 0.108878 0.108555 0.108551 0.10986 0.109866 0.109533 0.109536 0.109866 0.10987 0.109536 0.109538 0.109533 0.109536 0.109205 0.109206 0.109536 0.109538 0.109206 0.109207 0.10987 0.109872 0.109538 0.10954 0.109872 0.109874 0.10954 0.109541 0.109538 0.10954 0.109207 0.109207 0.10954 0.109541 0.109207 0.109207 0.109205 0.109206 0.108878 0.108877 0.109206 0.109207 0.108877 0.108876 0.108878 0.108877 0.108551 0.108547 0.108877 0.108876 0.108547 0.108545 0.109207 0.109207 0.108876 0.108875 0.109207 0.109207 0.108875 0.108874 0.108876 0.108875 0.108545 0.108542 0.108875 0.108874 0.108542 0.108541 0 0.0161084 0 0.0159653 0.0161084 0.030999 0.0159653 0.0307102 0 0.0159653 0 0.0158431 0.0159653 0.0307102 0.0158431 0.030462 0.030999 0.0447186 0.0307102 0.0442899 0.0447186 0.0570912 0.0442899 0.0565588 0.0307102 0.0442899 0.030462 0.0439151 0.0442899 0.0565588 0.0439151 0.0560827 0 0.0158431 0 0.0157379 0.0158431 0.030462 0.0157379 0.030247 0 0.0157379 0 0.0156464 0.0157379 0.030247 0.0156464 0.0300589 0.030462 0.0439151 0.030247 0.0435854 0.0439151 0.0560827 0.0435854 0.0556555 0.030247 0.0435854 0.0300589 0.0432936 0.0435854 0.0556555 0.0432936 0.0552708 0.0570912 0.0678713 0.0565588 0.0672973 0.0678713 0.0769334 0.0672973 0.0763789 0.0565588 0.0672973 0.0560827 0.0667706 0.0672973 0.0763789 0.0667706 0.0758562 0.0769334 0.0843385 0.0763789 0.0838407 0.0843385 0.0902688 0.0838407 0.0898387 0.0763789 0.0838407 0.0758562 0.083359 0.0838407 0.0898387 0.083359 0.0894129 0.0560827 0.0667706 0.0556555 0.066287 0.0667706 0.0758562 0.066287 0.0753643 0.0556555 0.066287 0.0552708 0.0658425 0.066287 0.0753643 0.0658425 0.0749019 0.0758562 0.083359 0.0753643 0.0828947 0.083359 0.0894129 0.0828947 0.0889935 0.0753643 0.0828947 0.0749019 0.0824485 0.0828947 0.0889935 0.0824485 0.0885821 0 0.0156464 0 0.0155658 0.0156464 0.0300589 0.0155658 0.029893 0 0.0155658 0 0.0154943 0.0155658 0.029893 0.0154943 0.0297453 0.0300589 0.0432936 0.0298