# vtk DataFile Version 3.0
#This file was generated by the deal.II library on 2022/1/6 at 22:50:10
ASCII
DATASET UNSTRUCTURED_GRID

POINTS 16384 double
0 0 0
0.1875 0 0
0 0.046875 0
0.1875 0.046875 0
0.1875 0 0
0.375 0 0
0.1875 0.046875 0
0.375 0.046875 0
0 0.046875 0
0.1875 0.046875 0
0 0.09375 0
0.1875 0.09375 0
0.1875 0.046875 0
0.375 0.046875 0
0.1875 0.09375 0
0.375 0.09375 0
0.375 0 0
0.5625 0 0
0.375 0.046875 0
0.5625 0.046875 0
0.5625 0 0
0.75 0 0
0.5625 0.046875 0
0.75 0.046875 0
0.375 0.046875 0
0.5625 0.046875 0
0.375 0.09375 0
0.5625 0.09375 0
0.5625 0.046875 0
0.75 0.046875 0
0.5625 0.09375 0
0.75 0.09375 0
0 0.09375 0
0.1875 0.09375 0
0 0.140625 0
0.1875 0.140625 0
0.1875 0.09375 0
0.375 0.09375 0
0.1875 0.140625 0
0.375 0.140625 0
0 0.140625 0
0.1875 0.140625 0
0 0.1875 0
0.1875 0.1875 0
0.1875 0.140625 0
0.375 0.140625 0
0.1875 0.1875 0
0.375 0.1875 0
0.375 0.09375 0
0.5625 0.09375 0
0.375 0.140625 0
0.5625 0.140625 0
0.5625 0.09375 0
0.75 0.09375 0
0.5625 0.140625 0
0.75 0.140625 0
0.375 0.140625 0
0.5625 0.140625 0
0.375 0.1875 0
0.5625 0.1875 0
0.5625 0.140625 0
0.75 0.140625 0
0.5625 0.1875 0
0.75 0.1875 0
0.75 0 0
0.9375 0 0
0.75 0.046875 0
0.9375 0.046875 0
0.9375 0 0
1.125 0 0
0.9375 0.046875 0
1.125 0.046875 0
0.75 0.046875 0
0.9375 0.046875 0
0.75 0.09375 0
0.9375 0.09375 0
0.9375 0.046875 0
1.125 0.046875 0
0.9375 0.09375 0
1.125 0.09375 0
1.125 0 0
1.3125 0 0
1.125 0.046875 0
1.3125 0.046875 0
1.3125 0 0
1.5 0 0
1.3125 0.046875 0
1.5 0.046875 0
1.125 0.046875 0
1.3125 0.046875 0
1.125 0.09375 0
1.3125 0.09375 0
1.3125 0.046875 0
1.5 0.046875 0
1.3125 0.09375 0
1.5 0.09375 0
0.75 0.09375 0
0.9375 0.09375 0
0.75 0.140625 0
0.9375 0.140625 0
0.9375 0.09375 0
1.125 0.09375 0
0.9375 0.140625 0
1.125 0.140625 0
0.75 0.140625 0
0.9375 0.140625 0
0.75 0.1875 0
0.9375 0.1875 0
0.9375 0.140625 0
1.125 0.140625 0
0.9375 0.1875 0
1.125 0.1875 0
1.125 0.09375 0
1.3125 0.09375 0
1.125 0.140625 0
1.3125 0.140625 0
1.3125 0.09375 0
1.5 0.09375 0
1.3125 0.140625 0
1.5 0.140625 0
1.125 0.140625 0
1.3125 0.140625 0
1.125 0.1875 0
1.3125 0.1875 0
1.3125 0.140625 0
1.5 0.140625 0
1.3125 0.1875 0
1.5 0.1875 0
0 0.1875 0
0.1875 0.1875 0
0 0.234375 0
0.1875 0.234375 0
0.1875 0.1875 0
0.375 0.1875 0
0.1875 0.234375 0
0.375 0.234375 0
0 0.234375 0
0.1875 0.234375 0
0 0.28125 0
0.1875 0.28125 0
0.1875 0.234375 0
0.375 0.234375 0
0.1875 0.28125 0
0.375 0.28125 0
0.375 0.1875 0
0.5625 0.1875 0
0.375 0.234375 0
0.5625 0.234375 0
0.5625 0.1875 0
0.75 0.1875 0
0.5625 0.234375 0
0.75 0.234375 0
0.375 0.234375 0
0.5625 0.234375 0
0.375 0.28125 0
0.5625 0.28125 0
0.5625 0.234375 0
0.75 0.234375 0
0.5625 0.28125 0
0.75 0.28125 0
0 0.28125 0
0.1875 0.28125 0
0 0.328125 0
0.1875 0.328125 0
0.1875 0.28125 0
0.375 0.28125 0
0.1875 0.328125 0
0.375 0.328125 0
0 0.328125 0
0.1875 0.328125 0
0 0.375 0
0.1875 0.375 0
0.1875 0.328125 0
0.375 0.328125 0
0.1875 0.375 0
0.375 0.375 0
0.375 0.28125 0
0.5625 0.28125 0
0.375 0.328125 0
0.5625 0.328125 0
0.5625 0.28125 0
0.75 0.28125 0
0.5625 0.328125 0
0.75 0.328125 0
0.375 0.328125 0
0.5625 0.328125 0
0.375 0.375 0
0.5625 0.375 0
0.5625 0.328125 0
0.75 0.328125 0
0.5625 0.375 0
0.75 0.375 0
0.75 0.1875 0
0.9375 0.1875 0
0.75 0.234375 0
0.9375 0.234375 0
0.9375 0.1875 0
1.125 0.1875 0
0.9375 0.234375 0
1.125 0.234375 0
0.75 0.234375 0
0.9375 0.234375 0
0.75 0.28125 0
0.9375 0.28125 0
0.9375 0.234375 0
1.125 0.234375 0
0.9375 0.28125 0
1.125 0.28125 0
1.125 0.1875 0
1.3125 0.1875 0
1.125 0.234375 0
1.3125 0.234375 0
1.3125 0.1875 0
1.5 0.1875 0
1.3125 0.234375 0
1.5 0.234375 0
1.125 0.234375 0
1.3125 0.234375 0
1.125 0.28125 0
1.3125 0.28125 0
1.3125 0.234375 0
1.5 0.234375 0
1.3125 0.28125 0
1.5 0.28125 0
0.75 0.28125 0
0.9375 0.28125 0
0.75 0.328125 0
0.9375 0.328125 0
0.9375 0.28125 0
1.125 0.28125 0
0.9375 0.328125 0
1.125 0.328125 0
0.75 0.328125 0
0.9375 0.328125 0
0.75 0.375 0
0.9375 0.375 0
0.9375 0.328125 0
1.125 0.328125 0
0.9375 0.375 0
1.125 0.375 0
1.125 0.28125 0
1.3125 0.28125 0
1.125 0.328125 0
1.3125 0.328125 0
1.3125 0.28125 0
1.5 0.28125 0
1.3125 0.328125 0
1.5 0.328125 0
1.125 0.328125 0
1.3125 0.328125 0
1.125 0.375 0
1.3125 0.375 0
1.3125 0.328125 0
1.5 0.328125 0
1.3125 0.375 0
1.5 0.375 0
1.5 0 0
1.6875 0 0
1.5 0.046875 0
1.6875 0.046875 0
1.6875 0 0
1.875 0 0
1.6875 0.046875 0
1.875 0.046875 0
1.5 0.046875 0
1.6875 0.046875 0
1.5 0.09375 0
1.6875 0.09375 0
1.6875 0.046875 0
1.875 0.046875 0
1.6875 0.09375 0
1.875 0.09375 0
1.875 0 0
2.0625 0 0
1.875 0.046875 0
2.0625 0.046875 0
2.0625 0 0
2.25 0 0
2.0625 0.046875 0
2.25 0.046875 0
1.875 0.046875 0
2.0625 0.046875 0
1.875 0.09375 0
2.0625 0.09375 0
2.0625 0.046875 0
2.25 0.046875 0
2.0625 0.09375 0
2.25 0.09375 0
1.5 0.09375 0
1.6875 0.09375 0
1.5 0.140625 0
1.6875 0.140625 0
1.6875 0.09375 0
1.875 0.09375 0
1.6875 0.140625 0
1.875 0.140625 0
1.5 0.140625 0
1.6875 0.140625 0
1.5 0.1875 0
1.6875 0.1875 0
1.6875 0.140625 0
1.875 0.140625 0
1.6875 0.1875 0
1.875 0.1875 0
1.875 0.09375 0
2.0625 0.09375 0
1.875 0.140625 0
2.0625 0.140625 0
2.0625 0.09375 0
2.25 0.09375 0
2.0625 0.140625 0
2.25 0.140625 0
1.875 0.140625 0
2.0625 0.140625 0
1.875 0.1875 0
2.0625 0.1875 0
2.0625 0.140625 0
2.25 0.140625 0
2.0625 0.1875 0
2.25 0.1875 0
2.25 0 0
2.4375 0 0
2.25 0.046875 0
2.4375 0.046875 0
2.4375 0 0
2.625 0 0
2.4375 0.046875 0
2.625 0.046875 0
2.25 0.046875 0
2.4375 0.046875 0
2.25 0.09375 0
2.4375 0.09375 0
2.4375 0.046875 0
2.625 0.046875 0
2.4375 0.09375 0
2.625 0.09375 0
2.625 0 0
2.8125 0 0
2.625 0.046875 0
2.8125 0.046875 0
2.8125 0 0
3 0 0
2.8125 0.046875 0
3 0.046875 0
2.625 0.046875 0
2.8125 0.046875 0
2.625 0.09375 0
2.8125 0.09375 0
2.8125 0.046875 0
3 0.046875 0
2.8125 0.09375 0
3 0.09375 0
2.25 0.09375 0
2.4375 0.09375 0
2.25 0.140625 0
2.4375 0.140625 0
2.4375 0.09375 0
2.625 0.09375 0
2.4375 0.140625 0
2.625 0.140625 0
2.25 0.140625 0
2.4375 0.140625 0
2.25 0.1875 0
2.4375 0.1875 0
2.4375 0.140625 0
2.625 0.140625 0
2.4375 0.1875 0
2.625 0.1875 0
2.625 0.09375 0
2.8125 0.09375 0
2.625 0.140625 0
2.8125 0.140625 0
2.8125 0.09375 0
3 0.09375 0
2.8125 0.140625 0
3 0.140625 0
2.625 0.140625 0
2.8125 0.140625 0
2.625 0.1875 0
2.8125 0.1875 0
2.8125 0.140625 0
3 0.140625 0
2.8125 0.1875 0
3 0.1875 0
1.5 0.1875 0
1.6875 0.1875 0
1.5 0.234375 0
1.6875 0.234375 0
1.6875 0.1875 0
1.875 0.1875 0
1.6875 0.234375 0
1.875 0.234375 0
1.5 0.234375 0
1.6875 0.234375 0
1.5 0.28125 0
1.6875 0.28125 0
1.6875 0.234375 0
1.875 0.234375 0
1.6875 0.28125 0
1.875 0.28125 0
1.875 0.1875 0
2.0625 0.1875 0
1.875 0.234375 0
2.0625 0.234375 0
2.0625 0.1875 0
2.25 0.1875 0
2.0625 0.234375 0
2.25 0.234375 0
1.875 0.234375 0
2.0625 0.234375 0
1.875 0.28125 0
2.0625 0.28125 0
2.0625 0.234375 0
2.25 0.234375 0
2.0625 0.28125 0
2.25 0.28125 0
1.5 0.28125 0
1.6875 0.28125 0
1.5 0.328125 0
1.6875 0.328125 0
1.6875 0.28125 0
1.875 0.28125 0
1.6875 0.328125 0
1.875 0.328125 0
1.5 0.328125 0
1.6875 0.328125 0
1.5 0.375 0
1.6875 0.375 0
1.6875 0.328125 0
1.875 0.328125 0
1.6875 0.375 0
1.875 0.375 0
1.875 0.28125 0
2.0625 0.28125 0
1.875 0.328125 0
2.0625 0.328125 0
2.0625 0.28125 0
2.25 0.28125 0
2.0625 0.328125 0
2.25 0.328125 0
1.875 0.328125 0
2.0625 0.328125 0
1.875 0.375 0
2.0625 0.375 0
2.0625 0.328125 0
2.25 0.328125 0
2.0625 0.375 0
2.25 0.375 0
2.25 0.1875 0
2.4375 0.1875 0
2.25 0.234375 0
2.4375 0.234375 0
2.4375 0.1875 0
2.625 0.1875 0
2.4375 0.234375 0
2.625 0.234375 0
2.25 0.234375 0
2.4375 0.234375 0
2.25 0.28125 0
2.4375 0.28125 0
2.4375 0.234375 0
2.625 0.234375 0
2.4375 0.28125 0
2.625 0.28125 0
2.625 0.1875 0
2.8125 0.1875 0
2.625 0.234375 0
2.8125 0.234375 0
2.8125 0.1875 0
3 0.1875 0
2.8125 0.234375 0
3 0.234375 0
2.625 0.234375 0
2.8125 0.234375 0
2.625 0.28125 0
2.8125 0.28125 0
2.8125 0.234375 0
3 0.234375 0
2.8125 0.28125 0
3 0.28125 0
2.25 0.28125 0
2.4375 0.28125 0
2.25 0.328125 0
2.4375 0.328125 0
2.4375 0.28125 0
2.625 0.28125 0
2.4375 0.328125 0
2.625 0.328125 0
2.25 0.328125 0
2.4375 0.328125 0
2.25 0.375 0
2.4375 0.375 0
2.4375 0.328125 0
2.625 0.328125 0
2.4375 0.375 0
2.625 0.375 0
2.625 0.28125 0
2.8125 0.28125 0
2.625 0.328125 0
2.8125 0.328125 0
2.8125 0.28125 0
3 0.28125 0
2.8125 0.328125 0
3 0.328125 0
2.625 0.328125 0
2.8125 0.328125 0
2.625 0.375 0
2.8125 0.375 0
2.8125 0.328125 0
3 0.328125 0
2.8125 0.375 0
3 0.375 0
0 0.375 0
0.1875 0.375 0
0 0.421875 0
0.1875 0.421875 0
0.1875 0.375 0
0.375 0.375 0
0.1875 0.421875 0
0.375 0.421875 0
0 0.421875 0
0.1875 0.421875 0
0 0.46875 0
0.1875 0.46875 0
0.1875 0.421875 0
0.375 0.421875 0
0.1875 0.46875 0
0.375 0.46875 0
0.375 0.375 0
0.5625 0.375 0
0.375 0.421875 0
0.5625 0.421875 0
0.5625 0.375 0
0.75 0.375 0
0.5625 0.421875 0
0.75 0.421875 0
0.375 0.421875 0
0.5625 0.421875 0
0.375 0.46875 0
0.5625 0.46875 0
0.5625 0.421875 0
0.75 0.421875 0
0.5625 0.46875 0
0.75 0.46875 0
0 0.46875 0
0.1875 0.46875 0
0 0.515625 0
0.1875 0.515625 0
0.1875 0.46875 0
0.375 0.46875 0
0.1875 0.515625 0
0.375 0.515625 0
0 0.515625 0
0.1875 0.515625 0
0 0.5625 0
0.1875 0.5625 0
0.1875 0.515625 0
0.375 0.515625 0
0.1875 0.5625 0
0.375 0.5625 0
0.375 0.46875 0
0.5625 0.46875 0
0.375 0.515625 0
0.5625 0.515625 0
0.5625 0.46875 0
0.75 0.46875 0
0.5625 0.515625 0
0.75 0.515625 0
0.375 0.515625 0
0.5625 0.515625 0
0.375 0.5625 0
0.5625 0.5625 0
0.5625 0.515625 0
0.75 0.515625 0
0.5625 0.5625 0
0.75 0.5625 0
0.75 0.375 0
0.9375 0.375 0
0.75 0.421875 0
0.9375 0.421875 0
0.9375 0.375 0
1.125 0.375 0
0.9375 0.421875 0
1.125 0.421875 0
0.75 0.421875 0
0.9375 0.421875 0
0.75 0.46875 0
0.9375 0.46875 0
0.9375 0.421875 0
1.125 0.421875 0
0.9375 0.46875 0
1.125 0.46875 0
1.125 0.375 0
1.3125 0.375 0
1.125 0.421875 0
1.3125 0.421875 0
1.3125 0.375 0
1.5 0.375 0
1.3125 0.421875 0
1.5 0.421875 0
1.125 0.421875 0
1.3125 0.421875 0
1.125 0.46875 0
1.3125 0.46875 0
1.3125 0.421875 0
1.5 0.421875 0
1.3125 0.46875 0
1.5 0.46875 0
0.75 0.46875 0
0.9375 0.46875 0
0.75 0.515625 0
0.9375 0.515625 0
0.9375 0.46875 0
1.125 0.46875 0
0.9375 0.515625 0
1.125 0.515625 0
0.75 0.515625 0
0.9375 0.515625 0
[...]
POINT_DATA 16384
SCALARS x_displacement double 1
LOOKUP_TABLE default
0 0.03305 0 0.0296188 0.03305 0.0581797 0.0296188 0.0566362 0 0.0296188 0 0.0272613 0.0296188 0.0566362 0.0272613 0.053979 0.0581797 0.0736277 0.0566362 0.0724505 0.0736277 0.0792143 0.0724505 0.0785215 0.0566362 0.0724505 0.053979 0.0705715 0.0724505 0.0785215 0.0705715 0.077376 0 0.0272613 0 0.0253173 0.0272613 0.053979 0.0253173 0.0505101 0 0.0253173 0 0.0236807 0.0253173 0.0505101 0.0236807 0.0469694 0.053979 0.0705715 0.0505101 0.0678917 0.0705715 0.077376 0.0678917 0.0758164 0.0505101 0.0678917 0.0469694 0.0642639 0.0678917 0.0758164 0.0642639 0.0739752 0.0792143 0.0842983 0.0785215 0.084054 0.0842983 0.0898563 0.084054 0.089936 0.0785215 0.084054 0.077376 0.0835637 0.084054 0.089936 0.0835637 0.0898277 0.0898563 0.0954359 0.089936 0.0956408 0.0954359 0.100682 0.0956408 0.100933 0.089936 0.0956408 0.0898277 0.0957142 0.0956408 0.100933 0.0957142 0.101085 0.077376 0.0835637 0.0758164 0.0828685 0.0835637 0.0898277 0.0828685 0.0895599 0.0758164 0.0828685 0.0739752 0.0820157 0.0828685 0.0895599 0.0820157 0.0891546 0.0898277 0.0957142 0.0895599 0.0956659 0.0957142 0.101085 0.0956659 0.101145 0.0895599 0.0956659 0.0891546 0.0955103 0.0956659 0.101145 0.0955103 0.101121 0 0.0236807 0 0.0222933 0.0236807 0.0469694 0.0222933 0.0436495 0 0.0222933 0 0.0210718 0.0222933 0.0436495 0.0210718 0.0410196 0.0469694 0.0642639 0.0436495 0.0605695 0.0642639 0.0739752 0.0605695 0.0720885 0.0436495 0.0605695 0.0410196 0.057614 0.0605695 0.0720885 0.057614 0.070193 0 0.0210718 0 0.0200421 0.0210718 0.0410196 0.0200421 0.038935 0 0.0200421 0 0.0191942 0.0200421 0.038935 0.0191942 0.0372748 0.0410196 0.057614 0.038935 0.0552541 0.057614 0.070193 0.0552541 0.0684163 0.038935 0.0552541 0.0372748 0.0533285 0.0552541 0.0684163 0.0533285 0.066808 0.0739752 0.0820157 0.0720885 0.0810286 0.0820157 0.0891546 0.0810286 0.08864 0.0720885 0.0810286 0.070193 0.0799649 0.0810286 0.08864 0.0799649 0.0880379 0.0891546 0.0955103 0.08864 0.0952607 0.0955103 0.101121 0.0952607 0.101019 0.08864 0.0952607 0.0880379 0.0949316 0.0952607 0.101019 0.0949316 0.10085 0.070193 0.0799649 0.0684163 0.0788584 0.0799649 0.0880379 0.0788584 0.0873726 0.0684163 0.0788584 0.066808 0.0777509 0.0788584 0.0873726 0.0777509 0.0866639 0.0880379 0.0949316 0.0873726 0.0945364 0.0949316 0.10085 0.0945364 0.100621 0.0873726 0.0945364 0.0866639 0.0940888 0.0945364 0.100621 0.0940888 0.100341 0.100682 0.105453 0.100933 0.105705 0.105453 0.1097 0.105705 0.109925 0.100933 0.105705 0.101085 0.105881 0.105705 0.109925 0.105881 0.110091 0.1097 0.113418 0.109925 0.113598 0.113418 0.116628 0.113598 0.116755 0.109925 0.113598 0.110091 0.113735 0.113598 0.116755 0.113735 0.11685 0.101085 0.105881 0.101145 0.105986 0.105881 0.110091 0.105986 0.110202 0.101145 0.105986 0.101121 0.106024 0.105986 0.110202 0.106024 0.110261 0.110091 0.113735 0.110202 0.113829 0.113735 0.11685 0.113829 0.116912 0.110202 0.113829 0.110261 0.113882 0.113829 0.116912 0.113882 0.116943 0.116628 0.119366 0.116755 0.119437 0.119366 0.121676 0.119437 0.121689 0.116755 0.119437 0.11685 0.119483 0.119437 0.121689 0.119483 0.121686 0.121676 0.123604 0.121689 0.123563 0.123604 0.125198 0.123563 0.125106 0.121689 0.123563 0.121686 0.123511 0.123563 0.125106 0.123511 0.125008 0.11685 0.119483 0.116912 0.119506 0.119483 0.121686 0.119506 0.121666 0.116912 0.119506 0.116943 0.119506 0.119506 0.121666 0.119506 0.121629 0.121686 0.123511 0.121666 0.123447 0.123511 0.125008 0.123447 0.124903 0.121666 0.123447 0.121629 0.123372 0.123447 0.124903 0.123372 0.12479 0.101121 0.106024 0.101019 0.106 0.106024 0.110261 0.106 0.11027 0.101019 0.106 0.10085 0.105919 0.106 0.11027 0.105919 0.110233 0.110261 0.113882 0.11027 0.113896 0.113882 0.116943 0.113896 0.116944 0.11027 0.113896 0.110233 0.113873 0.113896 0.116944 0.113873 0.116916 0.10085 0.105919 0.100621 0.105787 0.105919 0.110233 0.105787 0.110153 0.100621 0.105787 0.100341 0.10561 0.105787 0.110153 0.10561 0.110035 0.110233 0.113873 0.110153 0.113815 0.113873 0.116916 0.113815 0.11686 0.110153 0.113815 0.110035 0.113725 0.113815 0.11686 0.113725 0.116777 0.116943 0.119506 0.116944 0.119482 0.119506 0.121629 0.119482 0.121575 0.116944 0.119482 0.116916 0.119436 0.119482 0.121575 0.119436 0.121504 0.121629 0.123372 0.121575 0.123285 0.123372 0.12479 0.123285 0.12467 0.121575 0.123285 0.121504 0.123186 0.123285 0.12467 0.123186 0.12454 0.116916 0.119436 0.11686 0.119369 0.119436 0.121504 0.119369 0.121417 0.11686 0.119369 0.116777 0.11928 0.119369 0.121417 0.11928 0.121314 0.121504 0.123186 0.121417 0.123074 0.123186 0.12454 0.123074 0.124402 0.121417 0.123074 0.121314 0.12295 0.123074 0.124402 0.12295 0.124256 0 0.0191942 0 0.0185042 0.0191942 0.0372748 0.0185042 0.0359439 0 0.0185042 0 0.0179452 0.0185042 0.0359439 0.0179452 0.0348696 0.0372748 0.0533285 0.0359439 0.0517375 0.0533285 0.066808 0.0517375 0.0653728 0.0359439 0.0517375 0.0348696 0.0504115 0.0517375 0.0653728 0.0504115 0.0641007 0 0.0179452 0 0.0174918 0.0179452 0.0348696 0.0174918 0.0339965 0 0.0174918 0 0.0171229 0.0174918 0.0339965 0.0171229 0.0332818 0.0348696 0.0504115 0.0339965 0.049299 0.0504115 0.0641007 0.049299 0.0629764 0.0339965 0.049299 0.0332818 0.0483602 0.049299 0.0629764 0.0483602 0.0619838 0.066808 0.0777509 0.0653728 0.0766751 0.0777509 0.0866639 0.0766751 0.0859304 0.0653728 0.0766751 0.0641007 0.0756516 0.0766751 0.0859304 0.0756516 0.0851893 0.0866639 0.0940888 0.0859304 0.093601 0.0940888 0.100341 0.093601 0.100017 0.0859304 0.093601 0.0851893 0.0930844 0.093601 0.100017 0.0930844 0.0996592 0.0641007 0.0756516 0.0629764 0.074691 0.0756516 0.0851893 0.074691 0.0844546 0.0629764 0.074691 0.0619838 0.0737979 0.074691 0.0844546 0.0737979 0.0837368 0.0851893 0.0930844 0.0844546 0.092549 0.0930844 0.0996592 0.092549 0.0992731 0.0844546 0.092549 0.0837368 0.0920038 0.092549 0.0992731 0.0920038 0.0988659 0 0.0171229 0 0.0168211 0.0171229 0.0332818 0.0168211 0.0326926 0 0.0168211 0 0.0165725 0.0168211 0.0326926 0.0165725 0.0322032 0.0332818 0.0483602 0.0326926 0.0475635 0.0483602 0.0619838 0.0475635 0.0611072 0.0326926 0.0475635 0.0322032 0.0468838 0.0475635 0.0611072 0.0468838 0.0603323 0 0.0165725 0 0.016366 0.0165725 0.0322032 0.016366 0.0317935 0 0.016366 0 0.0161932 0.016366 0.0317935 0.0161932 0.0314477 0.0322032 0.0468838 0.0317935 0.0463006 0.0468838 0.0603323 0.0463006 0.059646 0.0317935 0.0463006 0.0314477 0.0457974 0.0463006 0.059646 0.0457974 0.0590367 0.0619838 0.0737979 0.0611072 0.0729728 0.0737979 0.0837368 0.0729728 0.0830433 0.0611072 0.0729728 0.0603323 0.0722136 0.0729728 0.0830433 0.0722136 0.0823791 0.0837368 0.0920038 0.0830433 0.0914565 0.0920038 0.0988659 0.0914565 0.0984436 0.0830433 0.0914565 0.0823791 0.0909131 0.0914565 0.0984436 0.0909131 0.0980115 0.0603323 0.0722136 0.059646 0.0715169 0.0722136 0.0823791 0.0715169 0.081747 0.059646 0.0715169 0.0590367 0.0708783 0.0715169 0.081747 0.0708783 0.0811484 0.0823791 0.0909131 0.081747 0.0903787 0.0909131 0.0980115 0.0903787 0.0975744 0.081747 0.0903787 0.0811484 0.0898569 0.0903787 0.0975744 0.0898569 0.0971361 0.100341 0.10561 0.100017 0.105393 0.10561 0.110035 0.105393 0.109881 0.100017 0.105393 0.0996592 0.10514 0.105393 0.109881 0.10514 0.109695 0.110035 0.113725 0.109881 0.113605 0.113725 0.116777 0.113605 0.11667 0.109881 0.113605 0.109695 0.113457 0.113605 0.11667 0.113457 0.11654 0.0996592 0.10514 0.0992731 0.104858 0.10514 0.109695 0.104858 0.109481 0.0992731 0.104858 0.0988659 0.104551 0.104858 0.109481 0.104551 0.109242 0.109695 0.113457 0.109481 0.113284 0.113457 0.11654 0.113284 0.116387 0.109481 0.113284 0.109242 0.113088 0.113284 0.116387 0.113088 0.116215 0.116777 0.11928 0.11667 0.119172 0.11928 0.121314 0.119172 0.121194 0.11667 0.119172 0.11654 0.119044 0.119172 0.121194 0.119044 0.12106 0.121314 0.12295 0.121194 0.122814 0.12295 0.124256 0.122814 0.1241 0.121194 0.122814 0.12106 0.122666 0.122814 0.1241 0.122666 0.123934 0.11654 0.119044 0.116387 0.118898 0.119044 0.12106 0.118898 0.12091 0.116387 0.118898 0.116215 0.118736 0.118898 0.12091 0.118736 0.120747 0.12106 0.122666 0.12091 0.122507 0.122666 0.123934 0.122507 0.12376 0.12091 0.122507 0.120747 0.122335 0.122507 0.12376 0.122335 0.123577 0.0988659 0.104551 0.0984436 0.104224 0.104551 0.109242 0.104224 0.108982 0.0984436 0.104224 0.0980115 0.103881 0.104224 0.108982 0.103881 0.108704 0.109242 0.113088 0.108982 0.112871 0.113088 0.116215 0.112871 0.116025 0.108982 0.112871 0.108704 0.112637 0.112871 0.116025 0.112637 0.115817 0.0980115 0.103881 0.0975744 0.103525 0.103881 0.108704 0.103525 0.10841 0.0975744 0.103525 0.0971361 0.103161 0.103525 0.10841 0.103161 0.108103 0.108704 0.112637 0.10841 0.112386 0.112637 0.115817 0.112386 0.115594 0.10841 0.112386 0.108103 0.112122 0.112386 0.115594 0.112122 0.115357 0.116215 0.118736 0.116025 0.118557 0.118736 0.120747 0.118557 0.12057 0.116025 0.118557 0.115817 0.118363 0.118557 0.12057 0.118363 0.12038 0.120747 0.122335 0.12057 0.122153 0.122335 0.123577 0.122153 0.123384 0.12057 0.122153 0.12038 0.121959 0.122153 0.123384 0.121959 0.123183 0.115817 0.118363 0.115594 0.118155 0.118363 0.12038 0.118155 0.120177 0.115594 0.118155 0.115357 0.117934 0.118155 0.120177 0.117934 0.119963 0.12038 0.121959 0.120177 0.121755 0.121959 0.123183 0.121755 0.122972 0.120177 0.121755 0.119963 0.121541 0.121755 0.122972 0.121541 0.122753 0.125198 0.126503 0.125106 0.126366 0.126503 0.127562 0.126366 0.127385 0.125106 0.126366 0.125008 0.126226 0.126366 0.127385 0.126226 0.127208 0.127562 0.128413 0.127385 0.128203 0.128413 0.129093 0.128203 0.128854 0.127385 0.128203 0.127208 0.127994 0.128203 0.128854 0.127994 0.128618 0.125008 0.126226 0.124903 0.126083 0.126226 0.127208 0.126083 0.12703 0.124903 0.126083 0.12479 0.125934 0.126083 0.12703 0.125934 0.12685 0.127208 0.127994 0.12703 0.127785 0.127994 0.128618 0.127785 0.128383 0.12703 0.127785 0.12685 0.127576 0.127785 0.128383 0.127576 0.128149 0.129093 0.12963 0.128854 0.129368 0.12963 0.130051 0.129368 0.129771 0.128854 0.129368 0.128618 0.129109 0.129368 0.129771 0.129109 0.129493 0.130051 0.130379 0.129771 0.130084 0.130379 0.130633 0.130084 0.130325 0.129771 0.130084 0.129493 0.129791 0.130084 0.130325 0.129791 0.130021 0.128618 0.129109 0.128383 0.128852 0.129109 0.129493 0.128852 0.129218 0.128383 0.128852 0.128149 0.128596 0.128852 0.129218 0.128596 0.128945 0.129493 0.129791 0.129218 0.129501 0.129791 0.130021 0.129501 0.129719 0.129218 0.129501 0.128945 0.129213 0.129501 0.129719 0.129213 0.12942 0.12479 0.125934 0.12467 0.125781 0.125934 0.12685 0.125781 0.126667 0.12467 0.125781 0.12454 0.125623 0.125781 0.126667 0.125623 0.12648 0.12685 0.127576 0.126667 0.127366 0.127576 0.128149 0.127366 0.127915 0.126667 0.127366 0.12648 0.127154 0.127366 0.127915 0.127154 0.12768 0.12454 0.125623 0.124402 0.125458 0.125623 0.12648 0.125458 0.12629 0.124402 0.125458 0.124256 0.125287 0.125458 0.12629 0.125287 0.126096 0.12648 0.127154 0.12629 0.12694 0.127154 0.12768 0.12694 0.127445 0.12629 0.12694 0.126096 0.126724 0.12694 0.127445 0.126724 0.127209 0.128149 0.128596 0.127915 0.128342 0.128596 0.128945 0.128342 0.128673 0.127915 0.128342 0.12768 0.128088 0.128342 0.128673 0.128088 0.128402 0.128945 0.129213 0.128673 0.128927 0.129213 0.12942 0.128927 0.129122 0.128673 0.128927 0.128402 0.128643 0.128927 0.129122 0.128643 0.128826 0.12768 0.128088 0.127445 0.127834 0.128088 0.128402 0.127834 0.128132 0.127445 0.127834 0.127209 0.12758 0.127834 0.128132 0.12758 0.127862 0.128402 0.128643 0.128132 0.128359 0.128643 0.128826 0.128359 0.12853 0.128132 0.128359 0.127862 0.128075 0.128359 0.12853 0.128075 0.128236 0.130633 0.130826 0.130325 0.13051 0.130826 0.130974 0.13051 0.130651 0.130325 0.13051 0.130021 0.130197 0.13051 0.130651 0.130197 0.130331 0.130974 0.131084 0.130651 0.130757 0.131084 0.131167 0.130757 0.130836 0.130651 0.130757 0.130331 0.130431 0.130757 0.130836 0.130431 0.130507 0.130021 0.130197 0.129719 0.129886 0.130197 0.130331 0.129886 0.130013 0.129719 0.129886 0.12942 0.129577 0.129886 0.130013 0.129577 0.129696 0.130331 0.130431 0.130013 0.130108 0.130431 0.130507 0.130108 0.130179 0.130013 0.130108 0.129696 0.129786 0.130108 0.130179 0.129786 0.129853 0.131167 0.131227 0.130836 0.130894 0.131227 0.131272 0.130894 0.130937 0.130836 0.130894 0.130507 0.130563 0.130894 0.130937 0.130563 0.130604 0.131272 0.131304 0.130937 0.130968 0.131304 0.131326 0.130968 0.13099 0.130937 0.130968 0.130604 0.130633 0.130968 0.13099 0.130633 0.130655 0.130507 0.130563 0.130179 0.130232 0.130563 0.130604 0.130232 0.130271 0.130179 0.130232 0.129853 0.129903 0.130232 0.130271 0.129903 0.12994 0.130604 0.130633 0.130271 0.1303 0.130633 0.130655 0.1303 0.13032 0.130271 0.1303 0.12994 0.129967 0.1303 0.13032 0.129967 0.129986 0.12942 0.129577 0.129122 0.12927 0.129577 0.129696 0.12927 0.129382 0.129122 0.12927 0.128826 0.128964 0.12927 0.129382 0.128964 0.129068 0.129696 0.129786 0.129382 0.129466 0.129786 0.129853 0.129466 0.129528 0.129382 0.129466 0.129068 0.129146 0.129466 0.129528 0.129146 0.129205 0.128826 0.128964 0.12853 0.128659 0.128964 0.129068 0.128659 0.128756 0.12853 0.128659 0.128236 0.128356 0.128659 0.128756 0.128356 0.128445 0.129068 0.129146 0.128756 0.128828 0.129146 0.129205 0.128828 0.128882 0.128756 0.128828 0.128445 0.128511 0.128828 0.128882 0.128511 0.12856 0.129853 0.129903 0.129528 0.129575 0.129903 0.12994 0.129575 0.129609 0.129528 0.129575 0.129205 0.129248 0.129575 0.129609 0.129248 0.12928 0.12994 0.129967 0.129609 0.129634 0.129967 0.129986 0.129634 0.129652 0.129609 0.129634 0.12928 0.129303 0.129634 0.129652 0.129303 0.129319 0.129205 0.129248 0.128882 0.128921 0.129248 0.12928 0.128921 0.12895 0.128882 0.128921 0.12856 0.128596 0.128921 0.12895 0.128596 0.128622 0.12928 0.129303 0.12895 0.128972 0.129303 0.129319 0.128972 0.128987 0.12895 0.128972 0.128622 0.128641 0.128972 0.128987 0.128641 0.128655 0.124256 0.125287 0.1241 0.12511 0.125287 0.126096 0.12511 0.125897 0.1241 0.12511 0.123934 0.124926 0.12511 0.125897 0.124926 0.125693 0.126096 0.126724 0.125897 0.126505 0.126724 0.127209 0.126505 0.126971 0.125897 0.126505 0.125693 0.126282 0.126505 0.126971 0.126282 0.12673 0.123934 0.124926 0.12376 0.124734 0.124926 0.125693 0.124734 0.125484 0.12376 0.124734 0.123577 0.124536 0.124734 0.125484 0.124536 0.12527 0.125693 0.126282 0.125484 0.126056 0.126282 0.12673 0.126056 0.126488 0.125484 0.126056 0.12527 0.125826 0.126056 0.126488 0.125826 0.126242 0.127209 0.12758 0.126971 0.127325 0.12758 0.127862 0.127325 0.127592 0.126971 0.127325 0.12673 0.127068 0.127325 0.127592 0.127068 0.127321 0.127862 0.128075 0.127592 0.127792 0.128075 0.128236 0.127792 0.127942 0.127592 0.127792 0.127321 0.127509 0.127792 0.127942 0.127509 0.127648 0.12673 0.127068 0.126488 0.12681 0.127068 0.127321 0.12681 0.12705 0.126488 0.12681 0.126242 0.12655 0.12681 0.12705 0.12655 0.126777 0.127321 0.127509 0.12705 0.127226 0.127509 0.127648 0.127226 0.127354 0.12705 0.127226 0.126777 0.126941 0.127226 0.127354 0.126941 0.12706 0.123577 0.124536 0.123384 0.124331 0.124536 0.12527 0.124331 0.125051 0.123384 0.124331 0.123183 0.124118 0.124331 0.125051 0.124118 0.124825 0.12527 0.125826 0.125051 0.125592 0.125826 0.126242 0.125592 0.125993 0.125051 0.125592 0.124825 0.125353 0.125592 0.125993 0.125353 0.125741 0.123183 0.124118 0.122972 0.123898 0.124118 0.124825 0.123898 0.124594 0.122972 0.123898 0.122753 0.123671 0.123898 0.124594 0.123671 0.124357 0.124825 0.125353 0.124594 0.125109 0.125353 0.125741 0.125109 0.125486 0.124594 0.125109 0.124357 0.124861 0.125109 0.125486 0.124861 0.125227 0.126242 0.12655 0.125993 0.126288 0.12655 0.126777 0.126288 0.126502 0.125993 0.126288 0.125741 0.126024 0.126288 0.126502 0.126024 0.126226 0.126777 0.126941 0.126502 0.126656 0.126941 0.12706 0.126656 0.126765 0.126502 0.126656 0.126226 0.12637 0.126656 0.126765 0.12637 0.12647 0.125741 0.126024 0.125486 0.125757 0.126024 0.126226 0.125757 0.125948 0.125486 0.125757 0.125227 0.125487 0.125757 0.125948 0.125487 0.125668 0.126226 0.12637 0.125948 0.126082 0.12637 0.12647 0.126082 0.126173 0.125948 0.126082 0.125668 0.125793 0.126082 0.126173 0.125793 0.125876 0.128236 0.128356 0.127942 0.128053 0.128356 0.128445 0.128053 0.128135 0.127942 0.128053 0.127648 0.12775 0.128053 0.128135 0.12775 0.127825 0.128445 0.128511 0.128135 0.128195 0.128511 0.12856 0.128195 0.128239 0.128135 0.128195 0.127825 0.127879 0.128195 0.128239 0.127879 0.127918 0.127648 0.12775 0.127354 0.127448 0.12775 0.127825 0.127448 0.127515 0.127354 0.127448 0.12706 0.127145 0.127448 0.127515 0.127145 0.127205 0.127825 0.127879 0.127515 0.127563 0.127879 0.127918 0.127563 0.127598 0.127515 0.127563 0.127205 0.127248 0.127563 0.127598 0.127248 0.127278 0.12856 0.128596 0.128239 0.128271 0.128596 0.128622 0.128271 0.128294 0.128239 0.128271 0.127918 0.127946 0.128271 0.128294 0.127946 0.127967 0.128622 0.128641 0.128294 0.128311 0.128641 0.128655 0.128311 0.128323 0.128294 0.128311 0.127967 0.127981 0.128311 0.128323 0.127981 0.127992 0.127918 0.127946 0.127598 0.127622 0.127946 0.127967 0.127622 0.12764 0.127598 0.127622 0.127278 0.127298 0.127622 0.12764 0.127298 0.127313 0.127967 0.127981 0.12764 0.127652 0.127981 0.127992 0.127652 0.127661 0.12764 0.127652 0.127313 0.127323 0.127652 0.127661 0.127323 0.12733 0.12706 0.127145 0.126765 0.126842 0.127145 0.127205 0.126842 0.126896 0.126765 0.126842 0.12647 0.126539 0.126842 0.126896 0.126539 0.126586 0.127205 0.127248 0.126896 0.126932 0.127248 0.127278 0.126932 0.126958 0.126896 0.126932 0.126586 0.126617 0.126932 0.126958 0.126617 0.126638 0.12647 0.126539 0.126173 0.126235 0.126539 0.126586 0.126235 0.126275 0.126173 0.126235 0.125876 0.12593 0.126235 0.126275 0.12593 0.125964 0.126586 0.126617 0.126275 0.126301 0.126617 0.126638 0.126301 0.126318 0.126275 0.126301 0.125964 0.125985 0.126301 0.126318 0.125985 0.125997 0.127278 0.127298 0.126958 0.126975 0.127298 0.127313 0.126975 0.126986 0.126958 0.126975 0.126638 0.126651 0.126975 0.126986 0.126651 0.12666 0.127313 0.127323 0.126986 0.126994 0.127323 0.12733 0.126994 0.126999 0.126986 0.126994 0.12666 0.126665 0.126994 0.126999 0.126665 0.126669 0.126638 0.126651 0.126318 0.126327 0.126651 0.12666 0.126327 0.126333 0.126318 0.126327 0.125997 0.126004 0.126327 0.126333 0.126004 0.126007 0.12666 0.126665 0.126333 0.126336 0.126665 0.126669 0.126336 0.126338 0.126333 0.126336 0.126007 0.126008 0.126336 0.126338 0.126008 0.126008 0 0.0161932 0 0.0160472 0.0161932 0.0314477 0.0160472 0.0311535 0 0.0160472 0 0.0159228 0.0160472 0.0311535 0.0159228 0.0309009 0.0314477 0.0457974 0.0311535 0.0453607 0.0457974 0.0590367 0.0453607 0.0584943 0.0311535 0.0453607 0.0309009 0.0449794 0.0453607 0.0584943 0.0449794 0.0580099 0 0.0159228 0 0.0158156 0.0159228 0.0309009 0.0158156 0.0306823 0 0.0158156 0 0.0157225 0.0158156 0.0306823 0.0157225 0.0304913 0.0309009 0.0449794 0.0306823 0.0446444 0.0449794 0.0580099 0.0446444 0.0575758 0.0306823 0.0446444 0.0304913 0.0443482 0.0446444 0.0575758 0.0443482 0.0571854 0.0590367 0.0708783 0.0584943 0.0702934 0.0708783 0.0811484 0.0702934 0.0805835 0.0584943 0.0702934 0.0580099 0.0697576 0.0702934 0.0805835 0.0697576 0.0800518 0.0811484 0.0898569 0.0805835 0.0893504 0.0898569 0.0971361 0.0893504 0.0967 0.0805835 0.0893504 0.0800518 0.088861 0.0893504 0.0967 0.088861 0.0962688 0.0580099 0.0697576 0.0575758 0.0692662 0.0697576 0.0800518 0.0692662 0.0795522 0.0575758 0.0692662 0.0571854 0.0688152 0.0692662 0.0795522 0.0688152 0.0790833 0.0800518 0.088861 0.0795522 0.0883901 0.088861 0.0962688 0.0883901 0.0958445 0.0795522 0.0883901 0.0790833 0.0879381 0.0883901 0.0958445 0.0879381 0.0954289 0 0.0157225 0 0.0156407 0.0157225 0.0304913 0.0156407 0.0303231 0 0.0156407 0 0.0155682 0.0156407 0.0303231 0.0155682 0.0301735 0.0304913 0.0443482 0.0303231 0.0440846 0.0443482 0.0571854 0.0440846 0.0568329 0.0303231 0.0440846 0.0301735 0.0438486 0.0440846 0.0568329 0.0438486 0.0565133 0 0.0155682 0 0.0155032 0.0155682 0.0301735 0.015503