# vtk DataFile Version 3.0
#This file was generated by the deal.II library on 2022/1/6 at 22:46:03
ASCII
DATASET UNSTRUCTURED_GRID

POINTS 16384 double
0 0 0
0.1875 0 0
0 0.046875 0
0.1875 0.046875 0
0.1875 0 0
0.375 0 0
0.1875 0.046875 0
0.375 0.046875 0
0 0.046875 0
0.1875 0.046875 0
0 0.09375 0
0.1875 0.09375 0
0.1875 0.046875 0
0.375 0.046875 0
0.1875 0.09375 0
0.375 0.09375 0
0.375 0 0
0.5625 0 0
0.375 0.046875 0
0.5625 0.046875 0
0.5625 0 0
0.75 0 0
0.5625 0.046875 0
0.75 0.046875 0
0.375 0.046875 0
0.5625 0.046875 0
0.375 0.09375 0
0.5625 0.09375 0
0.5625 0.046875 0
0.75 0.046875 0
0.5625 0.09375 0
0.75 0.09375 0
0 0.09375 0
0.1875 0.09375 0
0 0.140625 0
0.1875 0.140625 0
0.1875 0.09375 0
0.375 0.09375 0
0.1875 0.140625 0
0.375 0.140625 0
0 0.140625 0
0.1875 0.140625 0
0 0.1875 0
0.1875 0.1875 0
0.1875 0.140625 0
0.375 0.140625 0
0.1875 0.1875 0
0.375 0.1875 0
0.375 0.09375 0
0.5625 0.09375 0
0.375 0.140625 0
0.5625 0.140625 0
0.5625 0.09375 0
0.75 0.09375 0
0.5625 0.140625 0
0.75 0.140625 0
0.375 0.140625 0
0.5625 0.140625 0
0.375 0.1875 0
0.5625 0.1875 0
0.5625 0.140625 0
0.75 0.140625 0
0.5625 0.1875 0
0.75 0.1875 0
0.75 0 0
0.9375 0 0
0.75 0.046875 0
0.9375 0.046875 0
0.9375 0 0
1.125 0 0
0.9375 0.046875 0
1.125 0.046875 0
0.75 0.046875 0
0.9375 0.046875 0
0.75 0.09375 0
0.9375 0.09375 0
0.9375 0.046875 0
1.125 0.046875 0
0.9375 0.09375 0
1.125 0.09375 0
1.125 0 0
1.3125 0 0
1.125 0.046875 0
1.3125 0.046875 0
1.3125 0 0
1.5 0 0
1.3125 0.046875 0
1.5 0.046875 0
1.125 0.046875 0
1.3125 0.046875 0
1.125 0.09375 0
1.3125 0.09375 0
1.3125 0.046875 0
1.5 0.046875 0
1.3125 0.09375 0
1.5 0.09375 0
0.75 0.09375 0
0.9375 0.09375 0
0.75 0.140625 0
0.9375 0.140625 0
0.9375 0.09375 0
1.125 0.09375 0
0.9375 0.140625 0
1.125 0.140625 0
0.75 0.140625 0
0.9375 0.140625 0
0.75 0.1875 0
0.9375 0.1875 0
0.9375 0.140625 0
1.125 0.140625 0
0.9375 0.1875 0
1.125 0.1875 0
1.125 0.09375 0
1.3125 0.09375 0
1.125 0.140625 0
1.3125 0.140625 0
1.3125 0.09375 0
1.5 0.09375 0
1.3125 0.140625 0
1.5 0.140625 0
1.125 0.140625 0
1.3125 0.140625 0
1.125 0.1875 0
1.3125 0.1875 0
1.3125 0.140625 0
1.5 0.140625 0
1.3125 0.1875 0
1.5 0.1875 0
0 0.1875 0
0.1875 0.1875 0
0 0.234375 0
0.1875 0.234375 0
0.1875 0.1875 0
0.375 0.1875 0
0.1875 0.234375 0
0.375 0.234375 0
0 0.234375 0
0.1875 0.234375 0
0 0.28125 0
0.1875 0.28125 0
0.1875 0.234375 0
0.375 0.234375 0
0.1875 0.28125 0
0.375 0.28125 0
0.375 0.1875 0
0.5625 0.1875 0
0.375 0.234375 0
0.5625 0.234375 0
0.5625 0.1875 0
0.75 0.1875 0
0.5625 0.234375 0
0.75 0.234375 0
0.375 0.234375 0
0.5625 0.234375 0
0.375 0.28125 0
0.5625 0.28125 0
0.5625 0.234375 0
0.75 0.234375 0
0.5625 0.28125 0
0.75 0.28125 0
0 0.28125 0
0.1875 0.28125 0
0 0.328125 0
0.1875 0.328125 0
0.1875 0.28125 0
0.375 0.28125 0
0.1875 0.328125 0
0.375 0.328125 0
0 0.328125 0
0.1875 0.328125 0
0 0.375 0
0.1875 0.375 0
0.1875 0.328125 0
0.375 0.328125 0
0.1875 0.375 0
0.375 0.375 0
0.375 0.28125 0
0.5625 0.28125 0
0.375 0.328125 0
0.5625 0.328125 0
0.5625 0.28125 0
0.75 0.28125 0
0.5625 0.328125 0
0.75 0.328125 0
0.375 0.328125 0
0.5625 0.328125 0
0.375 0.375 0
0.5625 0.375 0
0.5625 0.328125 0
0.75 0.328125 0
0.5625 0.375 0
0.75 0.375 0
0.75 0.1875 0
0.9375 0.1875 0
0.75 0.234375 0
0.9375 0.234375 0
0.9375 0.1875 0
1.125 0.1875 0
0.9375 0.234375 0
1.125 0.234375 0
0.75 0.234375 0
0.9375 0.234375 0
0.75 0.28125 0
0.9375 0.28125 0
0.9375 0.234375 0
1.125 0.234375 0
0.9375 0.28125 0
1.125 0.28125 0
1.125 0.1875 0
1.3125 0.1875 0
1.125 0.234375 0
1.3125 0.234375 0
1.3125 0.1875 0
1.5 0.1875 0
1.3125 0.234375 0
1.5 0.234375 0
1.125 0.234375 0
1.3125 0.234375 0
1.125 0.28125 0
1.3125 0.28125 0
1.3125 0.234375 0
1.5 0.234375 0
1.3125 0.28125 0
1.5 0.28125 0
0.75 0.28125 0
0.9375 0.28125 0
0.75 0.328125 0
0.9375 0.328125 0
0.9375 0.28125 0
1.125 0.28125 0
0.9375 0.328125 0
1.125 0.328125 0
0.75 0.328125 0
0.9375 0.328125 0
0.75 0.375 0
0.9375 0.375 0
0.9375 0.328125 0
1.125 0.328125 0
0.9375 0.375 0
1.125 0.375 0
1.125 0.28125 0
1.3125 0.28125 0
1.125 0.328125 0
1.3125 0.328125 0
1.3125 0.28125 0
1.5 0.28125 0
1.3125 0.328125 0
1.5 0.328125 0
1.125 0.328125 0
1.3125 0.328125 0
1.125 0.375 0
1.3125 0.375 0
1.3125 0.328125 0
1.5 0.328125 0
1.3125 0.375 0
1.5 0.375 0
1.5 0 0
1.6875 0 0
1.5 0.046875 0
1.6875 0.046875 0
1.6875 0 0
1.875 0 0
1.6875 0.046875 0
1.875 0.046875 0
1.5 0.046875 0
1.6875 0.046875 0
1.5 0.09375 0
1.6875 0.09375 0
1.6875 0.046875 0
1.875 0.046875 0
1.6875 0.09375 0
1.875 0.09375 0
1.875 0 0
2.0625 0 0
1.875 0.046875 0
2.0625 0.046875 0
2.0625 0 0
2.25 0 0
2.0625 0.046875 0
2.25 0.046875 0
1.875 0.046875 0
2.0625 0.046875 0
1.875 0.09375 0
2.0625 0.09375 0
2.0625 0.046875 0
2.25 0.046875 0
2.0625 0.09375 0
2.25 0.09375 0
1.5 0.09375 0
1.6875 0.09375 0
1.5 0.140625 0
1.6875 0.140625 0
1.6875 0.09375 0
1.875 0.09375 0
1.6875 0.140625 0
1.875 0.140625 0
1.5 0.140625 0
1.6875 0.140625 0
1.5 0.1875 0
1.6875 0.1875 0
1.6875 0.140625 0
1.875 0.140625 0
1.6875 0.1875 0
1.875 0.1875 0
1.875 0.09375 0
2.0625 0.09375 0
1.875 0.140625 0
2.0625 0.140625 0
2.0625 0.09375 0
2.25 0.09375 0
2.0625 0.140625 0
2.25 0.140625 0
1.875 0.140625 0
2.0625 0.140625 0
1.875 0.1875 0
2.0625 0.1875 0
2.0625 0.140625 0
2.25 0.140625 0
2.0625 0.1875 0
2.25 0.1875 0
2.25 0 0
2.4375 0 0
2.25 0.046875 0
2.4375 0.046875 0
2.4375 0 0
2.625 0 0
2.4375 0.046875 0
2.625 0.046875 0
2.25 0.046875 0
2.4375 0.046875 0
2.25 0.09375 0
2.4375 0.09375 0
2.4375 0.046875 0
2.625 0.046875 0
2.4375 0.09375 0
2.625 0.09375 0
2.625 0 0
2.8125 0 0
2.625 0.046875 0
2.8125 0.046875 0
2.8125 0 0
3 0 0
2.8125 0.046875 0
3 0.046875 0
2.625 0.046875 0
2.8125 0.046875 0
2.625 0.09375 0
2.8125 0.09375 0
2.8125 0.046875 0
3 0.046875 0
2.8125 0.09375 0
3 0.09375 0
2.25 0.09375 0
2.4375 0.09375 0
2.25 0.140625 0
2.4375 0.140625 0
2.4375 0.09375 0
2.625 0.09375 0
2.4375 0.140625 0
2.625 0.140625 0
2.25 0.140625 0
2.4375 0.140625 0
2.25 0.1875 0
2.4375 0.1875 0
2.4375 0.140625 0
2.625 0.140625 0
2.4375 0.1875 0
2.625 0.1875 0
2.625 0.09375 0
2.8125 0.09375 0
2.625 0.140625 0
2.8125 0.140625 0
2.8125 0.09375 0
3 0.09375 0
2.8125 0.140625 0
3 0.140625 0
2.625 0.140625 0
2.8125 0.140625 0
2.625 0.1875 0
2.8125 0.1875 0
2.8125 0.140625 0
3 0.140625 0
2.8125 0.1875 0
3 0.1875 0
1.5 0.1875 0
1.6875 0.1875 0
1.5 0.234375 0
1.6875 0.234375 0
1.6875 0.1875 0
1.875 0.1875 0
1.6875 0.234375 0
1.875 0.234375 0
1.5 0.234375 0
1.6875 0.234375 0
1.5 0.28125 0
1.6875 0.28125 0
1.6875 0.234375 0
1.875 0.234375 0
1.6875 0.28125 0
1.875 0.28125 0
1.875 0.1875 0
2.0625 0.1875 0
1.875 0.234375 0
2.0625 0.234375 0
2.0625 0.1875 0
2.25 0.1875 0
2.0625 0.234375 0
2.25 0.234375 0
1.875 0.234375 0
2.0625 0.234375 0
1.875 0.28125 0
2.0625 0.28125 0
2.0625 0.234375 0
2.25 0.234375 0
2.0625 0.28125 0
2.25 0.28125 0
1.5 0.28125 0
1.6875 0.28125 0
1.5 0.328125 0
1.6875 0.328125 0
1.6875 0.28125 0
1.875 0.28125 0
1.6875 0.328125 0
1.875 0.328125 0
1.5 0.328125 0
1.6875 0.328125 0
1.5 0.375 0
1.6875 0.375 0
1.6875 0.328125 0
1.875 0.328125 0
1.6875 0.375 0
1.875 0.375 0
1.875 0.28125 0
2.0625 0.28125 0
1.875 0.328125 0
2.0625 0.328125 0
2.0625 0.28125 0
2.25 0.28125 0
2.0625 0.328125 0
2.25 0.328125 0
1.875 0.328125 0
2.0625 0.328125 0
1.875 0.375 0
2.0625 0.375 0
2.0625 0.328125 0
2.25 0.328125 0
2.0625 0.375 0
2.25 0.375 0
2.25 0.1875 0
2.4375 0.1875 0
2.25 0.234375 0
2.4375 0.234375 0
2.4375 0.1875 0
2.625 0.1875 0
2.4375 0.234375 0
2.625 0.234375 0
2.25 0.234375 0
2.4375 0.234375 0
2.25 0.28125 0
2.4375 0.28125 0
2.4375 0.234375 0
2.625 0.234375 0
2.4375 0.28125 0
2.625 0.28125 0
2.625 0.1875 0
2.8125 0.1875 0
2.625 0.234375 0
2.8125 0.234375 0
2.8125 0.1875 0
3 0.1875 0
2.8125 0.234375 0
3 0.234375 0
2.625 0.234375 0
2.8125 0.234375 0
2.625 0.28125 0
2.8125 0.28125 0
2.8125 0.234375 0
3 0.234375 0
2.8125 0.28125 0
3 0.28125 0
2.25 0.28125 0
2.4375 0.28125 0
2.25 0.328125 0
2.4375 0.328125 0
2.4375 0.28125 0
2.625 0.28125 0
2.4375 0.328125 0
2.625 0.328125 0
2.25 0.328125 0
2.4375 0.328125 0
2.25 0.375 0
2.4375 0.375 0
2.4375 0.328125 0
2.625 0.328125 0
2.4375 0.375 0
2.625 0.375 0
2.625 0.28125 0
2.8125 0.28125 0
2.625 0.328125 0
2.8125 0.328125 0
2.8125 0.28125 0
3 0.28125 0
2.8125 0.328125 0
3 0.328125 0
2.625 0.328125 0
2.8125 0.328125 0
2.625 0.375 0
2.8125 0.375 0
2.8125 0.328125 0
3 0.328125 0
2.8125 0.375 0
3 0.375 0
0 0.375 0
0.1875 0.375 0
0 0.421875 0
0.1875 0.421875 0
0.1875 0.375 0
0.375 0.375 0
0.1875 0.421875 0
0.375 0.421875 0
0 0.421875 0
0.1875 0.421875 0
0 0.46875 0
0.1875 0.46875 0
0.1875 0.421875 0
0.375 0.421875 0
0.1875 0.46875 0
0.375 0.46875 0
0.375 0.375 0
0.5625 0.375 0
0.375 0.421875 0
0.5625 0.421875 0
0.5625 0.375 0
0.75 0.375 0
0.5625 0.421875 0
0.75 0.421875 0
0.375 0.421875 0
0.5625 0.421875 0
0.375 0.46875 0
0.5625 0.46875 0
0.5625 0.421875 0
0.75 0.421875 0
0.5625 0.46875 0
0.75 0.46875 0
0 0.46875 0
0.1875 0.46875 0
0 0.515625 0
0.1875 0.515625 0
0.1875 0.46875 0
0.375 0.46875 0
0.1875 0.515625 0
0.375 0.515625 0
0 0.515625 0
0.1875 0.515625 0
0 0.5625 0
0.1875 0.5625 0
0.1875 0.515625 0
0.375 0.515625 0
0.1875 0.5625 0
0.375 0.5625 0
0.375 0.46875 0
0.5625 0.46875 0
0.375 0.515625 0
0.5625 0.515625 0
0.5625 0.46875 0
0.75 0.46875 0
0.5625 0.515625 0
0.75 0.515625 0
0.375 0.515625 0
0.5625 0.515625 0
0.375 0.5625 0
0.5625 0.5625 0
0.5625 0.515625 0
0.75 0.515625 0
0.5625 0.5625 0
0.75 0.5625 0
0.75 0.375 0
0.9375 0.375 0
0.75 0.421875 0
0.9375 0.421875 0
0.9375 0.375 0
1.125 0.375 0
0.9375 0.421875 0
1.125 0.421875 0
0.75 0.421875 0
0.9375 0.421875 0
0.75 0.46875 0
0.9375 0.46875 0
0.9375 0.421875 0
1.125 0.421875 0
0.9375 0.46875 0
1.125 0.46875 0
1.125 0.375 0
1.3125 0.375 0
1.125 0.421875 0
1.3125 0.421875 0
1.3125 0.375 0
1.5 0.375 0
1.3125 0.421875 0
1.5 0.421875 0
1.125 0.421875 0
1.3125 0.421875 0
1.125 0.46875 0
1.3125 0.46875 0
1.3125 0.421875 0
1.5 0.421875 0
1.3125 0.46875 0
1.5 0.46875 0
0.75 0.46875 0
0.9375 0.46875 0
0.75 0.515625 0
0.9375 0.515625 0
0.9375 0.46875 0
1.125 0.46875 0
0.9375 0.515625 0
1.125 0.515625 0
0.75 0.515625 0
0.9375 0.515625 0
[...]
POINT_DATA 16384
SCALARS x_displacement double 1
LOOKUP_TABLE default
0 0.0325156 0 0.02921 0.0325156 0.0571157 0.02921 0.0556912 0 0.02921 0 0.0269344 0.02921 0.0556912 0.0269344 0.0531379 0.0571157 0.0719126 0.0556912 0.0708508 0.0719126 0.0767247 0.0708508 0.0761331 0.0556912 0.0708508 0.0531379 0.0690719 0.0708508 0.0761331 0.0690719 0.0750779 0 0.0269344 0 0.0250478 0.0269344 0.0531379 0.0250478 0.0497547 0 0.0250478 0 0.0234536 0.0250478 0.0497547 0.0234536 0.0462834 0.0531379 0.0690719 0.0497547 0.0664794 0.0690719 0.0750779 0.0664794 0.0735982 0.0497547 0.0664794 0.0462834 0.062927 0.0664794 0.0735982 0.062927 0.0718275 0.0767247 0.0809231 0.0761331 0.0807607 0.0809231 0.0855067 0.0807607 0.0856462 0.0761331 0.0807607 0.0750779 0.0803446 0.0807607 0.0856462 0.0803446 0.0855929 0.0855067 0.0900507 0.0856462 0.0902922 0.0900507 0.0942296 0.0902922 0.0944945 0.0856462 0.0902922 0.0855929 0.0903999 0.0902922 0.0944945 0.0903999 0.0946605 0.0750779 0.0803446 0.0735982 0.0797164 0.0803446 0.0855929 0.0797164 0.0853754 0.0735982 0.0797164 0.0718275 0.0789236 0.0797164 0.0853754 0.0789236 0.0850161 0.0855929 0.0903999 0.0853754 0.0903839 0.0903999 0.0946605 0.0903839 0.0947347 0.0853754 0.0903839 0.0850161 0.0902584 0.0903839 0.0947347 0.0902584 0.0947239 0 0.0234536 0 0.0220984 0.0234536 0.0462834 0.0220984 0.0430196 0 0.0220984 0 0.020902 0.0220984 0.0430196 0.020902 0.0404351 0.0462834 0.062927 0.0430196 0.0592971 0.062927 0.0718275 0.0592971 0.0700028 0.0430196 0.0592971 0.0404351 0.0563962 0.0592971 0.0700028 0.0563962 0.0681615 0 0.020902 0 0.0198922 0.020902 0.0404351 0.0198922 0.0383874 0 0.0198922 0 0.0190603 0.0198922 0.0383874 0.0190603 0.0367573 0.0404351 0.0563962 0.0383874 0.0540824 0.0563962 0.0681615 0.0540824 0.0664319 0.0383874 0.0540824 0.0367573 0.0521956 0.0540824 0.0664319 0.0521956 0.0648642 0.0718275 0.0789236 0.0700028 0.0779902 0.0789236 0.0850161 0.0779902 0.0845433 0.0700028 0.0779902 0.0681615 0.0769743 0.0779902 0.0845433 0.0769743 0.083979 0.0850161 0.0902584 0.0845433 0.0900368 0.0902584 0.0947239 0.0900368 0.0946361 0.0845433 0.0900368 0.083979 0.0897336 0.0900368 0.0946361 0.0897336 0.0944797 0.0681615 0.0769743 0.0664319 0.0759101 0.0769743 0.083979 0.0759101 0.0833478 0.0664319 0.0759101 0.0648642 0.0748399 0.0759101 0.0833478 0.0748399 0.0826696 0.083979 0.0897336 0.0833478 0.0893621 0.0897336 0.0944797 0.0893621 0.0942632 0.0833478 0.0893621 0.0826696 0.0889362 0.0893621 0.0942632 0.0889362 0.0939948 0.0942296 0.0979311 0.0944945 0.0981759 0.0979311 0.101132 0.0981759 0.101331 0.0944945 0.0981759 0.0946605 0.0983471 0.0981759 0.101331 0.0983471 0.101476 0.101132 0.103851 0.101331 0.103991 0.103851 0.106127 0.103991 0.106203 0.101331 0.103991 0.101476 0.104092 0.103991 0.106203 0.104092 0.106251 0.0946605 0.0983471 0.0947347 0.0984485 0.0983471 0.101476 0.0984485 0.101569 0.0947347 0.0984485 0.0947239 0.0984845 0.0984485 0.101569 0.0984845 0.101612 0.101476 0.104092 0.101569 0.104155 0.104092 0.106251 0.104155 0.106272 0.101569 0.104155 0.101612 0.10418 0.104155 0.106272 0.10418 0.106266 0.106127 0.108008 0.106203 0.10802 0.108008 0.109547 0.10802 0.109497 0.106203 0.10802 0.106251 0.108013 0.10802 0.109497 0.108013 0.109436 0.109547 0.110793 0.109497 0.110687 0.110793 0.111792 0.110687 0.111638 0.109497 0.110687 0.109436 0.110577 0.110687 0.111638 0.110577 0.111483 0.106251 0.108013 0.106272 0.107988 0.108013 0.109436 0.107988 0.109364 0.106272 0.107988 0.106266 0.107943 0.107988 0.109364 0.107943 0.109279 0.109436 0.110577 0.109364 0.110459 0.110577 0.111483 0.110459 0.111324 0.109364 0.110459 0.109279 0.110335 0.110459 0.111324 0.110335 0.111162 0.0947239 0.0984845 0.0946361 0.09846 0.0984845 0.101612 0.09846 0.101607 0.0946361 0.09846 0.0944797 0.0983799 0.09846 0.101607 0.0983799 0.101559 0.101612 0.10418 0.101607 0.10417 0.10418 0.106266 0.10417 0.106234 0.101607 0.10417 0.101559 0.104126 0.10417 0.106234 0.104126 0.106177 0.0944797 0.0983799 0.0942632 0.0982494 0.0983799 0.101559 0.0982494 0.10147 0.0942632 0.0982494 0.0939948 0.098074 0.0982494 0.10147 0.098074 0.101344 0.101559 0.104126 0.10147 0.10405 0.104126 0.106177 0.10405 0.106094 0.10147 0.10405 0.101344 0.103943 0.10405 0.106094 0.103943 0.105989 0.106266 0.107943 0.106234 0.107881 0.107943 0.109279 0.107881 0.109182 0.106234 0.107881 0.106177 0.107799 0.107881 0.109182 0.107799 0.109072 0.109279 0.110335 0.109182 0.110202 0.110335 0.111162 0.110202 0.110996 0.109182 0.110202 0.109072 0.110061 0.110202 0.110996 0.110061 0.110825 0.106177 0.107799 0.106094 0.1077 0.107799 0.109072 0.1077 0.108948 0.106094 0.1077 0.105989 0.107583 0.1077 0.108948 0.107583 0.108812 0.109072 0.110061 0.108948 0.109911 0.110061 0.110825 0.109911 0.110648 0.108948 0.109911 0.108812 0.109752 0.109911 0.110648 0.109752 0.110465 0 0.0190603 0 0.0183833 0.0190603 0.0367573 0.0183833 0.035451 0 0.0183833 0 0.0178347 0.0183833 0.035451 0.0178347 0.0343969 0.0367573 0.0521956 0.035451 0.0506371 0.0521956 0.0648642 0.0506371 0.063464 0.035451 0.0506371 0.0343969 0.0493383 0.0506371 0.063464 0.0493383 0.0622218 0 0.0178347 0 0.01739 0.0178347 0.0343969 0.01739 0.0335403 0 0.01739 0 0.0170281 0.01739 0.0335403 0.0170281 0.0328393 0.0343969 0.0493383 0.0335403 0.0482486 0.0493383 0.0622218 0.0482486 0.0611231 0.0335403 0.0482486 0.0328393 0.0473287 0.0482486 0.0611231 0.0473287 0.0601523 0.0648642 0.0748399 0.063464 0.0737969 0.0748399 0.0826696 0.0737969 0.0819635 0.063464 0.0737969 0.0622218 0.072802 0.0737969 0.0819635 0.072802 0.0812467 0.0826696 0.0889362 0.0819635 0.0884682 0.0889362 0.0939948 0.0884682 0.0936828 0.0819635 0.0884682 0.0812467 0.0879695 0.0884682 0.0936828 0.0879695 0.0933351 0.0622218 0.072802 0.0611231 0.0718664 0.072802 0.0812467 0.0718664 0.0805336 0.0611231 0.0718664 0.0601523 0.070995 0.0718664 0.0805336 0.070995 0.0798348 0.0812467 0.0879695 0.0805336 0.0874504 0.0879695 0.0933351 0.0874504 0.0929587 0.0805336 0.0874504 0.0798348 0.0869198 0.0874504 0.0929587 0.0869198 0.0925606 0 0.0170281 0 0.0167321 0.0170281 0.0328393 0.0167321 0.0322612 0 0.0167321 0 0.0164882 0.0167321 0.0322612 0.0164882 0.031781 0.0328393 0.0473287 0.0322612 0.0465478 0.0473287 0.0601523 0.0465478 0.0592942 0.0322612 0.0465478 0.031781 0.0458812 0.0465478 0.0592942 0.0458812 0.0585349 0 0.0164882 0 0.0162857 0.0164882 0.031781 0.0162857 0.0313788 0 0.0162857 0 0.0161161 0.0162857 0.0313788 0.0161161 0.0310392 0.031781 0.0458812 0.0313788 0.0453089 0.0458812 0.0585349 0.0453089 0.0578617 0.0313788 0.0453089 0.0310392 0.0448147 0.0453089 0.0578617 0.0448147 0.0572634 0.0601523 0.070995 0.0592942 0.0701886 0.070995 0.0798348 0.0701886 0.0791581 0.0592942 0.0701886 0.0585349 0.0694455 0.0701886 0.0791581 0.0694455 0.0785085 0.0798348 0.0869198 0.0791581 0.0863856 0.0869198 0.0925606 0.0863856 0.0921466 0.0791581 0.0863856 0.0785085 0.0858539 0.0863856 0.0921466 0.0858539 0.0917222 0.0585349 0.0694455 0.0578617 0.0687626 0.0694455 0.0785085 0.0687626 0.0778892 0.0578617 0.0687626 0.0572634 0.0681358 0.0687626 0.0778892 0.0681358 0.0773018 0.0785085 0.0858539 0.0778892 0.0853299 0.0858539 0.0917222 0.0853299 0.091292 0.0778892 0.0853299 0.0773018 0.0848173 0.0853299 0.091292 0.0848173 0.09086 0.0939948 0.098074 0.0936828 0.0978588 0.098074 0.101344 0.0978588 0.101184 0.0936828 0.0978588 0.0933351 0.097609 0.0978588 0.101184 0.097609 0.100993 0.101344 0.103943 0.101184 0.103809 0.103943 0.105989 0.103809 0.105861 0.101184 0.103809 0.100993 0.103649 0.103809 0.105861 0.103649 0.105712 0.0933351 0.097609 0.0929587 0.0973298 0.097609 0.100993 0.0973298 0.100775 0.0929587 0.0973298 0.0925606 0.0970258 0.0973298 0.100775 0.0970258 0.100533 0.100993 0.103649 0.100775 0.103465 0.103649 0.105712 0.103465 0.105544 0.100775 0.103465 0.100533 0.10326 0.103465 0.105544 0.10326 0.105357 0.105989 0.107583 0.105861 0.107448 0.107583 0.108812 0.107448 0.108663 0.105861 0.107448 0.105712 0.107298 0.107448 0.108663 0.107298 0.108502 0.108812 0.109752 0.108663 0.109584 0.109752 0.110465 0.109584 0.110276 0.108663 0.109584 0.108502 0.109407 0.109584 0.110276 0.109407 0.110081 0.105712 0.107298 0.105544 0.107131 0.107298 0.108502 0.107131 0.108328 0.105544 0.107131 0.105357 0.10695 0.107131 0.108328 0.10695 0.108143 0.108502 0.109407 0.108328 0.109221 0.109407 0.110081 0.109221 0.109878 0.108328 0.109221 0.108143 0.109025 0.109221 0.109878 0.109025 0.109669 0.0925606 0.0970258 0.0921466 0.0967015 0.0970258 0.100533 0.0967015 0.10027 0.0921466 0.0967015 0.0917222 0.0963611 0.0967015 0.10027 0.0963611 0.0999898 0.100533 0.10326 0.10027 0.103036 0.10326 0.105357 0.103036 0.105154 0.10027 0.103036 0.0999898 0.102795 0.103036 0.105154 0.102795 0.104935 0.0917222 0.0963611 0.091292 0.0960083 0.0963611 0.0999898 0.0960083 0.0996945 0.091292 0.0960083 0.09086 0.0956466 0.0960083 0.0996945 0.0956466 0.0993869 0.0999898 0.102795 0.0996945 0.102539 0.102795 0.104935 0.102539 0.104703 0.0996945 0.102539 0.0993869 0.102269 0.102539 0.104703 0.102269 0.104457 0.105357 0.10695 0.105154 0.106754 0.10695 0.108143 0.106754 0.107946 0.105154 0.106754 0.104935 0.106545 0.106754 0.107946 0.106545 0.107738 0.108143 0.109025 0.107946 0.108821 0.109025 0.109669 0.108821 0.109453 0.107946 0.108821 0.107738 0.108607 0.108821 0.109453 0.108607 0.10923 0.104935 0.106545 0.104703 0.106324 0.106545 0.107738 0.106324 0.107519 0.104703 0.106324 0.104457 0.106091 0.106324 0.107519 0.106091 0.107291 0.107738 0.108607 0.107519 0.108385 0.108607 0.10923 0.108385 0.109 0.107519 0.108385 0.107291 0.108154 0.108385 0.109 0.108154 0.108764 0.111792 0.112588 0.111638 0.112392 0.112588 0.113216 0.112392 0.112986 0.111638 0.112392 0.111483 0.112198 0.112392 0.112986 0.112198 0.112759 0.113216 0.113708 0.112986 0.113451 0.113708 0.114091 0.113451 0.113812 0.112986 0.113451 0.112759 0.113197 0.113451 0.113812 0.113197 0.113536 0.111483 0.112198 0.111324 0.112004 0.112198 0.112759 0.112004 0.112534 0.111324 0.112004 0.111162 0.111808 0.112004 0.112534 0.111808 0.112309 0.112759 0.113197 0.112534 0.112945 0.113197 0.113536 0.112945 0.113264 0.112534 0.112945 0.112309 0.112696 0.112945 0.113264 0.112696 0.112994 0.114091 0.114387 0.113812 0.114091 0.114387 0.114614 0.114091 0.114305 0.113812 0.114091 0.113536 0.113798 0.114091 0.114305 0.113798 0.113999 0.114614 0.114786 0.114305 0.114468 0.114786 0.114917 0.114468 0.114591 0.114305 0.114468 0.113999 0.114152 0.114468 0.114591 0.114152 0.114268 0.113536 0.113798 0.113264 0.113509 0.113798 0.113999 0.113509 0.113697 0.113264 0.113509 0.112994 0.113222 0.113509 0.113697 0.113222 0.113397 0.113999 0.114152 0.113697 0.11384 0.114152 0.114268 0.11384 0.113948 0.113697 0.11384 0.113397 0.11353 0.11384 0.113948 0.11353 0.113631 0.111162 0.111808 0.110996 0.111611 0.111808 0.112309 0.111611 0.112084 0.110996 0.111611 0.110825 0.111411 0.111611 0.112084 0.111411 0.111859 0.112309 0.112696 0.112084 0.112448 0.112696 0.112994 0.112448 0.112726 0.112084 0.112448 0.111859 0.1122 0.112448 0.112726 0.1122 0.112459 0.110825 0.111411 0.110648 0.111208 0.111411 0.111859 0.111208 0.111632 0.110648 0.111208 0.110465 0.111002 0.111208 0.111632 0.111002 0.111404 0.111859 0.1122 0.111632 0.111952 0.1122 0.112459 0.111952 0.112193 0.111632 0.111952 0.111404 0.111704 0.111952 0.112193 0.111704 0.111927 0.112994 0.113222 0.112726 0.112938 0.113222 0.113397 0.112938 0.113099 0.112726 0.112938 0.112459 0.112655 0.112938 0.113099 0.112655 0.112804 0.113397 0.11353 0.113099 0.113222 0.11353 0.113631 0.113222 0.113315 0.113099 0.113222 0.112804 0.112916 0.113222 0.113315 0.112916 0.113001 0.112459 0.112655 0.112193 0.112374 0.112655 0.112804 0.112374 0.11251 0.112193 0.112374 0.111927 0.112093 0.112374 0.11251 0.112093 0.112217 0.112804 0.112916 0.11251 0.112612 0.112916 0.113001 0.112612 0.112688 0.11251 0.112612 0.112217 0.112309 0.112612 0.112688 0.112309 0.112377 0.114917 0.115014 0.114591 0.114684 0.115014 0.115085 0.114684 0.114752 0.114591 0.114684 0.114268 0.114356 0.114684 0.114752 0.114356 0.114421 0.115085 0.115138 0.114752 0.114802 0.115138 0.115175 0.114802 0.114839 0.114752 0.114802 0.114421 0.114469 0.114802 0.114839 0.114469 0.114504 0.114268 0.114356 0.113948 0.11403 0.114356 0.114421 0.11403 0.114091 0.113948 0.11403 0.113631 0.113707 0.11403 0.114091 0.113707 0.113763 0.114421 0.114469 0.114091 0.114137 0.114469 0.114504 0.114137 0.11417 0.114091 0.114137 0.113763 0.113806 0.114137 0.11417 0.113806 0.113837 0.115175 0.115202 0.114839 0.114865 0.115202 0.11522 0.114865 0.114883 0.114839 0.114865 0.114504 0.114529 0.114865 0.114883 0.114529 0.114546 0.11522 0.115232 0.114883 0.114895 0.115232 0.11524 0.114895 0.114903 0.114883 0.114895 0.114546 0.114558 0.114895 0.114903 0.114558 0.114566 0.114504 0.114529 0.11417 0.114194 0.114529 0.114546 0.114194 0.11421 0.11417 0.114194 0.113837 0.113859 0.114194 0.11421 0.113859 0.113875 0.114546 0.114558 0.11421 0.114222 0.114558 0.114566 0.114222 0.11423 0.11421 0.114222 0.113875 0.113887 0.114222 0.11423 0.113887 0.113894 0.113631 0.113707 0.113315 0.113385 0.113707 0.113763 0.113385 0.113437 0.113315 0.113385 0.113001 0.113065 0.113385 0.113437 0.113065 0.113112 0.113763 0.113806 0.113437 0.113476 0.113806 0.113837 0.113476 0.113505 0.113437 0.113476 0.113112 0.113148 0.113476 0.113505 0.113148 0.113174 0.113001 0.113065 0.112688 0.112746 0.113065 0.113112 0.112746 0.112789 0.112688 0.112746 0.112377 0.112428 0.112746 0.112789 0.112428 0.112466 0.113112 0.113148 0.112789 0.11282 0.113148 0.113174 0.11282 0.112844 0.112789 0.11282 0.112466 0.112494 0.11282 0.112844 0.112494 0.112515 0.113837 0.113859 0.113505 0.113526 0.113859 0.113875 0.113526 0.113541 0.113505 0.113526 0.113174 0.113193 0.113526 0.113541 0.113193 0.113207 0.113875 0.113887 0.113541 0.113551 0.113887 0.113894 0.113551 0.113559 0.113541 0.113551 0.113207 0.113217 0.113551 0.113559 0.113217 0.113224 0.113174 0.113193 0.112844 0.112861 0.113193 0.113207 0.112861 0.112874 0.112844 0.112861 0.112515 0.11253 0.112861 0.112874 0.11253 0.112541 0.113207 0.113217 0.112874 0.112883 0.113217 0.113224 0.112883 0.112889 0.112874 0.112883 0.112541 0.112549 0.112883 0.112889 0.112549 0.112554 0.110465 0.111002 0.110276 0.110792 0.111002 0.111404 0.110792 0.111173 0.110276 0.110792 0.110081 0.110577 0.110792 0.111173 0.110577 0.11094 0.111404 0.111704 0.111173 0.111455 0.111704 0.111927 0.111455 0.111662 0.111173 0.111455 0.11094 0.111204 0.111455 0.111662 0.111204 0.111395 0.110081 0.110577 0.109878 0.110358 0.110577 0.11094 0.110358 0.110704 0.109878 0.110358 0.109669 0.110133 0.110358 0.110704 0.110133 0.110464 0.11094 0.111204 0.110704 0.110951 0.111204 0.111395 0.110951 0.111128 0.110704 0.110951 0.110464 0.110697 0.110951 0.111128 0.110697 0.110859 0.111927 0.112093 0.111662 0.111813 0.112093 0.112217 0.111813 0.111925 0.111662 0.111813 0.111395 0.111533 0.111813 0.111925 0.111533 0.111633 0.112217 0.112309 0.111925 0.112007 0.112309 0.112377 0.112007 0.112067 0.111925 0.112007 0.111633 0.111705 0.112007 0.112067 0.111705 0.111757 0.111395 0.111533 0.111128 0.111253 0.111533 0.111633 0.111253 0.111341 0.111128 0.111253 0.110859 0.110972 0.111253 0.111341 0.110972 0.111049 0.111633 0.111705 0.111341 0.111404 0.111705 0.111757 0.111404 0.111448 0.111341 0.111404 0.111049 0.111102 0.111404 0.111448 0.111102 0.111139 0.109669 0.110133 0.109453 0.109904 0.110133 0.110464 0.109904 0.11022 0.109453 0.109904 0.10923 0.109669 0.109904 0.11022 0.109669 0.109973 0.110464 0.110697 0.11022 0.110439 0.110697 0.110859 0.110439 0.110589 0.11022 0.110439 0.109973 0.110179 0.110439 0.110589 0.110179 0.110316 0.10923 0.109669 0.109 0.109429 0.109669 0.109973 0.109429 0.109721 0.109 0.109429 0.108764 0.109183 0.109429 0.109721 0.109183 0.109465 0.109973 0.110179 0.109721 0.109916 0.110179 0.110316 0.109916 0.110042 0.109721 0.109916 0.109465 0.109649 0.109916 0.110042 0.109649 0.109765 0.110859 0.110972 0.110589 0.110689 0.110972 0.111049 0.110689 0.110757 0.110589 0.110689 0.110316 0.110406 0.110689 0.110757 0.110406 0.110463 0.111049 0.111102 0.110757 0.110801 0.111102 0.111139 0.110801 0.11083 0.110757 0.110801 0.110463 0.110499 0.110801 0.11083 0.110499 0.110521 0.110316 0.110406 0.110042 0.110121 0.110406 0.110463 0.110121 0.110169 0.110042 0.110121 0.109765 0.109834 0.110121 0.110169 0.109834 0.109874 0.110463 0.110499 0.110169 0.110197 0.110499 0.110521 0.110197 0.110212 0.110169 0.110197 0.109874 0.109894 0.110197 0.110212 0.109894 0.109902 0.112377 0.112428 0.112067 0.112111 0.112428 0.112466 0.112111 0.112144 0.112067 0.112111 0.111757 0.111795 0.112111 0.112144 0.111795 0.111823 0.112466 0.112494 0.112144 0.112168 0.112494 0.112515 0.112168 0.112186 0.112144 0.112168 0.111823 0.111843 0.112168 0.112186 0.111843 0.111858 0.111757 0.111795 0.111448 0.11148 0.111795 0.111823 0.11148 0.111502 0.111448 0.11148 0.111139 0.111164 0.11148 0.111502 0.111164 0.111182 0.111823 0.111843 0.111502 0.111518 0.111843 0.111858 0.111518 0.11153 0.111502 0.111518 0.111182 0.111194 0.111518 0.11153 0.111194 0.111203 0.112515 0.11253 0.112186 0.112199 0.11253 0.112541 0.112199 0.112208 0.112186 0.112199 0.111858 0.111869 0.112199 0.112208 0.111869 0.111876 0.112541 0.112549 0.112208 0.112215 0.112549 0.112554 0.112215 0.11222 0.112208 0.112215 0.111876 0.111882 0.112215 0.11222 0.111882 0.111886 0.111858 0.111869 0.11153 0.111539 0.111869 0.111876 0.111539 0.111545 0.11153 0.111539 0.111203 0.111209 0.111539 0.111545 0.111209 0.111213 0.111876 0.111882 0.111545 0.111549 0.111882 0.111886 0.111549 0.111552 0.111545 0.111549 0.111213 0.111216 0.111549 0.111552 0.111216 0.111218 0.111139 0.111164 0.11083 0.110849 0.111164 0.111182 0.110849 0.110862 0.11083 0.110849 0.110521 0.110534 0.110849 0.110862 0.110534 0.110542 0.111182 0.111194 0.110862 0.11087 0.111194 0.111203 0.11087 0.110876 0.110862 0.11087 0.110542 0.110546 0.11087 0.110876 0.110546 0.110549 0.110521 0.110534 0.110212 0.110219 0.110534 0.110542 0.110219 0.110222 0.110212 0.110219 0.109902 0.109904 0.110219 0.110222 0.109904 0.109902 0.110542 0.110546 0.110222 0.110223 0.110546 0.110549 0.110223 0.110222 0.110222 0.110223 0.109902 0.109899 0.110223 0.110222 0.109899 0.109895 0.111203 0.111209 0.110876 0.110879 0.111209 0.111213 0.110879 0.110882 0.110876 0.110879 0.110549 0.11055 0.110879 0.110882 0.11055 0.110551 0.111213 0.111216 0.110882 0.110884 0.111216 0.111218 0.110884 0.110885 0.110882 0.110884 0.110551 0.110551 0.110884 0.110885 0.110551 0.110552 0.110549 0.11055 0.110222 0.110221 0.11055 0.110551 0.110221 0.11022 0.110222 0.110221 0.109895 0.109892 0.110221 0.11022 0.109892 0.109889 0.110551 0.110551 0.11022 0.110219 0.110551 0.110552 0.110219 0.110218 0.11022 0.110219 0.109889 0.109887 0.110219 0.110218 0.109887 0.109885 0 0.0161161 0 0.0159728 0.0161161 0.0310392 0.0159728 0.03075 0 0.0159728 0 0.0158505 0.0159728 0.03075 0.0158505 0.0305016 0.0310392 0.0448147 0.03075 0.0443853 0.0448147 0.0572634 0.0443853 0.0567302 0.03075 0.0443853 0.0305016 0.0440101 0.0443853 0.0567302 0.0440101 0.0562535 0 0.0158505 0 0.0157452 0.0158505 0.0305016 0.0157452 0.0302863 0 0.0157452 0 0.0156535 0.0157452 0.0302863 0.0156535 0.030098 0.0305016 0.0440101 0.0302863 0.04368 0.0440101 0.0562535 0.04368 0.0558259 0.0302863 0.04368 0.030098 0.0433879 0.04368 0.0558259 0.0433879 0.0554407 0.0572634 0.0681358 0.0567302 0.067561 0.0681358 0.0773018 0.067561 0.0767465 0.0567302 0.067561 0.0562535 0.0670336 0.067561 0.0767465 0.0670336 0.0762232 0.0773018 0.0848173 0.0767465 0.0843189 0.0848173 0.09086 0.0843189 0.0904296 0.0767465 0.0843189 0.0762232 0.0838367 0.0843189 0.0904296 0.0838367 0.0900035 0.0562535 0.0670336 0.0558259 0.0665495 0.0670336 0.0762232 0.0665495 0.0757307 0.0558259 0.0665495 0.0554407 0.0661046 0.0665495 0.0757307 0.0661046 0.0752679 0.0762232 0.0838367 0.0757307 0.083372 0.0838367 0.0900035 0.083372 0.0895838 0.0757307 0.083372 0.0752679 0.0829254 0.083372 0.0895838 0.0829254 0.0891722 0 0.0156535 0 0.0155729 0.0156535 0.030098 0.0155729 0.0299319 0 0.0155729 0 0.0155013 0.0155729 0.0299319 0.0155013 0.0297841 0.030098 0.0433879 0.0299319