# vtk DataFile Version 3.0
#This file was generated by the deal.II library on 2022/1/6 at 22:55:58
ASCII
DATASET UNSTRUCTURED_GRID

POINTS 16384 double
0 0 0
0.1875 0 0
0 0.046875 0
0.1875 0.046875 0
0.1875 0 0
0.375 0 0
0.1875 0.046875 0
0.375 0.046875 0
0 0.046875 0
0.1875 0.046875 0
0 0.09375 0
0.1875 0.09375 0
0.1875 0.046875 0
0.375 0.046875 0
0.1875 0.09375 0
0.375 0.09375 0
0.375 0 0
0.5625 0 0
0.375 0.046875 0
0.5625 0.046875 0
0.5625 0 0
0.75 0 0
0.5625 0.046875 0
0.75 0.046875 0
0.375 0.046875 0
0.5625 0.046875 0
0.375 0.09375 0
0.5625 0.09375 0
0.5625 0.046875 0
0.75 0.046875 0
0.5625 0.09375 0
0.75 0.09375 0
0 0.09375 0
0.1875 0.09375 0
0 0.140625 0
0.1875 0.140625 0
0.1875 0.09375 0
0.375 0.09375 0
0.1875 0.140625 0
0.375 0.140625 0
0 0.140625 0
0.1875 0.140625 0
0 0.1875 0
0.1875 0.1875 0
0.1875 0.140625 0
0.375 0.140625 0
0.1875 0.1875 0
0.375 0.1875 0
0.375 0.09375 0
0.5625 0.09375 0
0.375 0.140625 0
0.5625 0.140625 0
0.5625 0.09375 0
0.75 0.09375 0
0.5625 0.140625 0
0.75 0.140625 0
0.375 0.140625 0
0.5625 0.140625 0
0.375 0.1875 0
0.5625 0.1875 0
0.5625 0.140625 0
0.75 0.140625 0
0.5625 0.1875 0
0.75 0.1875 0
0.75 0 0
0.9375 0 0
0.75 0.046875 0
0.9375 0.046875 0
0.9375 0 0
1.125 0 0
0.9375 0.046875 0
1.125 0.046875 0
0.75 0.046875 0
0.9375 0.046875 0
0.75 0.09375 0
0.9375 0.09375 0
0.9375 0.046875 0
1.125 0.046875 0
0.9375 0.09375 0
1.125 0.09375 0
1.125 0 0
1.3125 0 0
1.125 0.046875 0
1.3125 0.046875 0
1.3125 0 0
1.5 0 0
1.3125 0.046875 0
1.5 0.046875 0
1.125 0.046875 0
1.3125 0.046875 0
1.125 0.09375 0
1.3125 0.09375 0
1.3125 0.046875 0
1.5 0.046875 0
1.3125 0.09375 0
1.5 0.09375 0
0.75 0.09375 0
0.9375 0.09375 0
0.75 0.140625 0
0.9375 0.140625 0
0.9375 0.09375 0
1.125 0.09375 0
0.9375 0.140625 0
1.125 0.140625 0
0.75 0.140625 0
0.9375 0.140625 0
0.75 0.1875 0
0.9375 0.1875 0
0.9375 0.140625 0
1.125 0.140625 0
0.9375 0.1875 0
1.125 0.1875 0
1.125 0.09375 0
1.3125 0.09375 0
1.125 0.140625 0
1.3125 0.140625 0
1.3125 0.09375 0
1.5 0.09375 0
1.3125 0.140625 0
1.5 0.140625 0
1.125 0.140625 0
1.3125 0.140625 0
1.125 0.1875 0
1.3125 0.1875 0
1.3125 0.140625 0
1.5 0.140625 0
1.3125 0.1875 0
1.5 0.1875 0
0 0.1875 0
0.1875 0.1875 0
0 0.234375 0
0.1875 0.234375 0
0.1875 0.1875 0
0.375 0.1875 0
0.1875 0.234375 0
0.375 0.234375 0
0 0.234375 0
0.1875 0.234375 0
0 0.28125 0
0.1875 0.28125 0
0.1875 0.234375 0
0.375 0.234375 0
0.1875 0.28125 0
0.375 0.28125 0
0.375 0.1875 0
0.5625 0.1875 0
0.375 0.234375 0
0.5625 0.234375 0
0.5625 0.1875 0
0.75 0.1875 0
0.5625 0.234375 0
0.75 0.234375 0
0.375 0.234375 0
0.5625 0.234375 0
0.375 0.28125 0
0.5625 0.28125 0
0.5625 0.234375 0
0.75 0.234375 0
0.5625 0.28125 0
0.75 0.28125 0
0 0.28125 0
0.1875 0.28125 0
0 0.328125 0
0.1875 0.328125 0
0.1875 0.28125 0
0.375 0.28125 0
0.1875 0.328125 0
0.375 0.328125 0
0 0.328125 0
0.1875 0.328125 0
0 0.375 0
0.1875 0.375 0
0.1875 0.328125 0
0.375 0.328125 0
0.1875 0.375 0
0.375 0.375 0
0.375 0.28125 0
0.5625 0.28125 0
0.375 0.328125 0
0.5625 0.328125 0
0.5625 0.28125 0
0.75 0.28125 0
0.5625 0.328125 0
0.75 0.328125 0
0.375 0.328125 0
0.5625 0.328125 0
0.375 0.375 0
0.5625 0.375 0
0.5625 0.328125 0
0.75 0.328125 0
0.5625 0.375 0
0.75 0.375 0
0.75 0.1875 0
0.9375 0.1875 0
0.75 0.234375 0
0.9375 0.234375 0
0.9375 0.1875 0
1.125 0.1875 0
0.9375 0.234375 0
1.125 0.234375 0
0.75 0.234375 0
0.9375 0.234375 0
0.75 0.28125 0
0.9375 0.28125 0
0.9375 0.234375 0
1.125 0.234375 0
0.9375 0.28125 0
1.125 0.28125 0
1.125 0.1875 0
1.3125 0.1875 0
1.125 0.234375 0
1.3125 0.234375 0
1.3125 0.1875 0
1.5 0.1875 0
1.3125 0.234375 0
1.5 0.234375 0
1.125 0.234375 0
1.3125 0.234375 0
1.125 0.28125 0
1.3125 0.28125 0
1.3125 0.234375 0
1.5 0.234375 0
1.3125 0.28125 0
1.5 0.28125 0
0.75 0.28125 0
0.9375 0.28125 0
0.75 0.328125 0
0.9375 0.328125 0
0.9375 0.28125 0
1.125 0.28125 0
0.9375 0.328125 0
1.125 0.328125 0
0.75 0.328125 0
0.9375 0.328125 0
0.75 0.375 0
0.9375 0.375 0
0.9375 0.328125 0
1.125 0.328125 0
0.9375 0.375 0
1.125 0.375 0
1.125 0.28125 0
1.3125 0.28125 0
1.125 0.328125 0
1.3125 0.328125 0
1.3125 0.28125 0
1.5 0.28125 0
1.3125 0.328125 0
1.5 0.328125 0
1.125 0.328125 0
1.3125 0.328125 0
1.125 0.375 0
1.3125 0.375 0
1.3125 0.328125 0
1.5 0.328125 0
1.3125 0.375 0
1.5 0.375 0
1.5 0 0
1.6875 0 0
1.5 0.046875 0
1.6875 0.046875 0
1.6875 0 0
1.875 0 0
1.6875 0.046875 0
1.875 0.046875 0
1.5 0.046875 0
1.6875 0.046875 0
1.5 0.09375 0
1.6875 0.09375 0
1.6875 0.046875 0
1.875 0.046875 0
1.6875 0.09375 0
1.875 0.09375 0
1.875 0 0
2.0625 0 0
1.875 0.046875 0
2.0625 0.046875 0
2.0625 0 0
2.25 0 0
2.0625 0.046875 0
2.25 0.046875 0
1.875 0.046875 0
2.0625 0.046875 0
1.875 0.09375 0
2.0625 0.09375 0
2.0625 0.046875 0
2.25 0.046875 0
2.0625 0.09375 0
2.25 0.09375 0
1.5 0.09375 0
1.6875 0.09375 0
1.5 0.140625 0
1.6875 0.140625 0
1.6875 0.09375 0
1.875 0.09375 0
1.6875 0.140625 0
1.875 0.140625 0
1.5 0.140625 0
1.6875 0.140625 0
1.5 0.1875 0
1.6875 0.1875 0
1.6875 0.140625 0
1.875 0.140625 0
1.6875 0.1875 0
1.875 0.1875 0
1.875 0.09375 0
2.0625 0.09375 0
1.875 0.140625 0
2.0625 0.140625 0
2.0625 0.09375 0
2.25 0.09375 0
2.0625 0.140625 0
2.25 0.140625 0
1.875 0.140625 0
2.0625 0.140625 0
1.875 0.1875 0
2.0625 0.1875 0
2.0625 0.140625 0
2.25 0.140625 0
2.0625 0.1875 0
2.25 0.1875 0
2.25 0 0
2.4375 0 0
2.25 0.046875 0
2.4375 0.046875 0
2.4375 0 0
2.625 0 0
2.4375 0.046875 0
2.625 0.046875 0
2.25 0.046875 0
2.4375 0.046875 0
2.25 0.09375 0
2.4375 0.09375 0
2.4375 0.046875 0
2.625 0.046875 0
2.4375 0.09375 0
2.625 0.09375 0
2.625 0 0
2.8125 0 0
2.625 0.046875 0
2.8125 0.046875 0
2.8125 0 0
3 0 0
2.8125 0.046875 0
3 0.046875 0
2.625 0.046875 0
2.8125 0.046875 0
2.625 0.09375 0
2.8125 0.09375 0
2.8125 0.046875 0
3 0.046875 0
2.8125 0.09375 0
3 0.09375 0
2.25 0.09375 0
2.4375 0.09375 0
2.25 0.140625 0
2.4375 0.140625 0
2.4375 0.09375 0
2.625 0.09375 0
2.4375 0.140625 0
2.625 0.140625 0
2.25 0.140625 0
2.4375 0.140625 0
2.25 0.1875 0
2.4375 0.1875 0
2.4375 0.140625 0
2.625 0.140625 0
2.4375 0.1875 0
2.625 0.1875 0
2.625 0.09375 0
2.8125 0.09375 0
2.625 0.140625 0
2.8125 0.140625 0
2.8125 0.09375 0
3 0.09375 0
2.8125 0.140625 0
3 0.140625 0
2.625 0.140625 0
2.8125 0.140625 0
2.625 0.1875 0
2.8125 0.1875 0
2.8125 0.140625 0
3 0.140625 0
2.8125 0.1875 0
3 0.1875 0
1.5 0.1875 0
1.6875 0.1875 0
1.5 0.234375 0
1.6875 0.234375 0
1.6875 0.1875 0
1.875 0.1875 0
1.6875 0.234375 0
1.875 0.234375 0
1.5 0.234375 0
1.6875 0.234375 0
1.5 0.28125 0
1.6875 0.28125 0
1.6875 0.234375 0
1.875 0.234375 0
1.6875 0.28125 0
1.875 0.28125 0
1.875 0.1875 0
2.0625 0.1875 0
1.875 0.234375 0
2.0625 0.234375 0
2.0625 0.1875 0
2.25 0.1875 0
2.0625 0.234375 0
2.25 0.234375 0
1.875 0.234375 0
2.0625 0.234375 0
1.875 0.28125 0
2.0625 0.28125 0
2.0625 0.234375 0
2.25 0.234375 0
2.0625 0.28125 0
2.25 0.28125 0
1.5 0.28125 0
1.6875 0.28125 0
1.5 0.328125 0
1.6875 0.328125 0
1.6875 0.28125 0
1.875 0.28125 0
1.6875 0.328125 0
1.875 0.328125 0
1.5 0.328125 0
1.6875 0.328125 0
1.5 0.375 0
1.6875 0.375 0
1.6875 0.328125 0
1.875 0.328125 0
1.6875 0.375 0
1.875 0.375 0
1.875 0.28125 0
2.0625 0.28125 0
1.875 0.328125 0
2.0625 0.328125 0
2.0625 0.28125 0
2.25 0.28125 0
2.0625 0.328125 0
2.25 0.328125 0
1.875 0.328125 0
2.0625 0.328125 0
1.875 0.375 0
2.0625 0.375 0
2.0625 0.328125 0
2.25 0.328125 0
2.0625 0.375 0
2.25 0.375 0
2.25 0.1875 0
2.4375 0.1875 0
2.25 0.234375 0
2.4375 0.234375 0
2.4375 0.1875 0
2.625 0.1875 0
2.4375 0.234375 0
2.625 0.234375 0
2.25 0.234375 0
2.4375 0.234375 0
2.25 0.28125 0
2.4375 0.28125 0
2.4375 0.234375 0
2.625 0.234375 0
2.4375 0.28125 0
2.625 0.28125 0
2.625 0.1875 0
2.8125 0.1875 0
2.625 0.234375 0
2.8125 0.234375 0
2.8125 0.1875 0
3 0.1875 0
2.8125 0.234375 0
3 0.234375 0
2.625 0.234375 0
2.8125 0.234375 0
2.625 0.28125 0
2.8125 0.28125 0
2.8125 0.234375 0
3 0.234375 0
2.8125 0.28125 0
3 0.28125 0
2.25 0.28125 0
2.4375 0.28125 0
2.25 0.328125 0
2.4375 0.328125 0
2.4375 0.28125 0
2.625 0.28125 0
2.4375 0.328125 0
2.625 0.328125 0
2.25 0.328125 0
2.4375 0.328125 0
2.25 0.375 0
2.4375 0.375 0
2.4375 0.328125 0
2.625 0.328125 0
2.4375 0.375 0
2.625 0.375 0
2.625 0.28125 0
2.8125 0.28125 0
2.625 0.328125 0
2.8125 0.328125 0
2.8125 0.28125 0
3 0.28125 0
2.8125 0.328125 0
3 0.328125 0
2.625 0.328125 0
2.8125 0.328125 0
2.625 0.375 0
2.8125 0.375 0
2.8125 0.328125 0
3 0.328125 0
2.8125 0.375 0
3 0.375 0
0 0.375 0
0.1875 0.375 0
0 0.421875 0
0.1875 0.421875 0
0.1875 0.375 0
0.375 0.375 0
0.1875 0.421875 0
0.375 0.421875 0
0 0.421875 0
0.1875 0.421875 0
0 0.46875 0
0.1875 0.46875 0
0.1875 0.421875 0
0.375 0.421875 0
0.1875 0.46875 0
0.375 0.46875 0
0.375 0.375 0
0.5625 0.375 0
0.375 0.421875 0
0.5625 0.421875 0
0.5625 0.375 0
0.75 0.375 0
0.5625 0.421875 0
0.75 0.421875 0
0.375 0.421875 0
0.5625 0.421875 0
0.375 0.46875 0
0.5625 0.46875 0
0.5625 0.421875 0
0.75 0.421875 0
0.5625 0.46875 0
0.75 0.46875 0
0 0.46875 0
0.1875 0.46875 0
0 0.515625 0
0.1875 0.515625 0
0.1875 0.46875 0
0.375 0.46875 0
0.1875 0.515625 0
0.375 0.515625 0
0 0.515625 0
0.1875 0.515625 0
0 0.5625 0
0.1875 0.5625 0
0.1875 0.515625 0
0.375 0.515625 0
0.1875 0.5625 0
0.375 0.5625 0
0.375 0.46875 0
0.5625 0.46875 0
0.375 0.515625 0
0.5625 0.515625 0
0.5625 0.46875 0
0.75 0.46875 0
0.5625 0.515625 0
0.75 0.515625 0
0.375 0.515625 0
0.5625 0.515625 0
0.375 0.5625 0
0.5625 0.5625 0
0.5625 0.515625 0
0.75 0.515625 0
0.5625 0.5625 0
0.75 0.5625 0
0.75 0.375 0
0.9375 0.375 0
0.75 0.421875 0
0.9375 0.421875 0
0.9375 0.375 0
1.125 0.375 0
0.9375 0.421875 0
1.125 0.421875 0
0.75 0.421875 0
0.9375 0.421875 0
0.75 0.46875 0
0.9375 0.46875 0
0.9375 0.421875 0
1.125 0.421875 0
0.9375 0.46875 0
1.125 0.46875 0
1.125 0.375 0
1.3125 0.375 0
1.125 0.421875 0
1.3125 0.421875 0
1.3125 0.375 0
1.5 0.375 0
1.3125 0.421875 0
1.5 0.421875 0
1.125 0.421875 0
1.3125 0.421875 0
1.125 0.46875 0
1.3125 0.46875 0
1.3125 0.421875 0
1.5 0.421875 0
1.3125 0.46875 0
1.5 0.46875 0
0.75 0.46875 0
0.9375 0.46875 0
0.75 0.515625 0
0.9375 0.515625 0
0.9375 0.46875 0
1.125 0.46875 0
0.9375 0.515625 0
1.125 0.515625 0
0.75 0.515625 0
0.9375 0.515625 0
[...]
POINT_DATA 16384
SCALARS x_displacement double 1
LOOKUP_TABLE default
0 0.0335553 0 0.030008 0.0335553 0.0591851 0.030008 0.0575299 0 0.030008 0 0.0275743 0.030008 0.0575299 0.0275743 0.0547742 0.0591851 0.0752475 0.0575299 0.0739584 0.0752475 0.0815682 0.0739584 0.0807731 0.0575299 0.0739584 0.0547742 0.0719817 0.0739584 0.0807731 0.0719817 0.0795355 0 0.0275743 0 0.0255763 0.0275743 0.0547742 0.0255763 0.0512234 0 0.0255763 0 0.0238993 0.0255763 0.0512234 0.0238993 0.0476156 0.0547742 0.0719817 0.0512234 0.0692159 0.0719817 0.0795355 0.0692159 0.0778938 0.0512234 0.0692159 0.0476156 0.0655131 0.0692159 0.0778938 0.0655131 0.0759794 0.0815682 0.0875009 0.0807731 0.0871679 0.0875009 0.0940074 0.0871679 0.0940154 0.0807731 0.0871679 0.0795355 0.086597 0.0871679 0.0940154 0.086597 0.093841 0.0940074 0.100615 0.0940154 0.100767 0.100615 0.106947 0.100767 0.107164 0.0940154 0.100767 0.093841 0.100791 0.100767 0.107164 0.100791 0.107284 0.0795355 0.086597 0.0778938 0.0858287 0.086597 0.093841 0.0858287 0.0935126 0.0778938 0.0858287 0.0759794 0.0849099 0.0858287 0.0935126 0.0849099 0.0930519 0.093841 0.100791 0.0935126 0.100697 0.100791 0.107284 0.100697 0.107314 0.0935126 0.100697 0.0930519 0.100499 0.100697 0.107314 0.100499 0.107261 0 0.0238993 0 0.0224807 0.0238993 0.0476156 0.0224807 0.0442408 0 0.0224807 0 0.0212346 0.0224807 0.0442408 0.0212346 0.0415658 0.0476156 0.0655131 0.0442408 0.061754 0.0655131 0.0759794 0.061754 0.074028 0.0442408 0.061754 0.0415658 0.058743 0.061754 0.074028 0.058743 0.0720754 0 0.0212346 0 0.020185 0.0212346 0.0415658 0.020185 0.039444 0 0.020185 0 0.019321 0.020185 0.039444 0.019321 0.0377531 0.0415658 0.058743 0.039444 0.0563357 0.058743 0.0720754 0.0563357 0.0702486 0.039444 0.0563357 0.0377531 0.0543697 0.0563357 0.0702486 0.0543697 0.0685964 0.0759794 0.0849099 0.074028 0.0838634 0.0849099 0.0930519 0.0838634 0.0924869 0.074028 0.0838634 0.0720754 0.0827465 0.0838634 0.0924869 0.0827465 0.0918389 0.0930519 0.100499 0.0924869 0.10021 0.100499 0.107261 0.10021 0.107132 0.0924869 0.10021 0.0918389 0.0998445 0.10021 0.107132 0.0998445 0.106938 0.0720754 0.0827465 0.0702486 0.0815924 0.0827465 0.0918389 0.0815924 0.0911321 0.0702486 0.0815924 0.0685964 0.0804425 0.0815924 0.0911321 0.0804425 0.0903859 0.0918389 0.0998445 0.0911321 0.0994161 0.0998445 0.106938 0.0994161 0.106685 0.0911321 0.0994161 0.0903859 0.0989381 0.0994161 0.106685 0.0989381 0.106383 0.106947 0.112837 0.107164 0.113074 0.112837 0.118213 0.113074 0.11844 0.107164 0.113074 0.107284 0.113236 0.113074 0.11844 0.113236 0.118608 0.118213 0.123047 0.11844 0.123246 0.123047 0.127341 0.123246 0.1275 0.11844 0.123246 0.118608 0.123398 0.123246 0.1275 0.123398 0.127623 0.107284 0.113236 0.107314 0.113325 0.113236 0.118608 0.113325 0.118719 0.107314 0.113325 0.107261 0.113348 0.113325 0.118719 0.113348 0.118776 0.118608 0.123398 0.118719 0.123505 0.123398 0.127623 0.123505 0.127711 0.118719 0.123505 0.118776 0.12357 0.123505 0.127711 0.12357 0.127764 0.127341 0.131114 0.1275 0.131227 0.131114 0.134397 0.131227 0.13446 0.1275 0.131227 0.127623 0.131312 0.131227 0.13446 0.131312 0.134503 0.134397 0.137225 0.13446 0.13724 0.137225 0.13964 0.13724 0.139607 0.13446 0.13724 0.134503 0.137239 0.13724 0.139607 0.137239 0.139564 0.127623 0.131312 0.127711 0.13137 0.131312 0.134503 0.13137 0.134525 0.127711 0.13137 0.127764 0.1314 0.13137 0.134525 0.1314 0.134527 0.134503 0.137239 0.134525 0.137223 0.137239 0.139564 0.137223 0.139509 0.134525 0.137223 0.134527 0.137191 0.137223 0.139509 0.137191 0.139443 0.107261 0.113348 0.107132 0.11331 0.113348 0.118776 0.11331 0.118783 0.107132 0.11331 0.106938 0.113216 0.11331 0.118783 0.113216 0.118744 0.118776 0.12357 0.118783 0.123593 0.12357 0.127764 0.123593 0.127784 0.118783 0.123593 0.118744 0.123578 0.123593 0.127784 0.123578 0.127773 0.106938 0.113216 0.106685 0.113071 0.113216 0.118744 0.113071 0.118661 0.106685 0.113071 0.106383 0.112881 0.113071 0.118661 0.112881 0.118539 0.118744 0.123578 0.118661 0.123527 0.123578 0.127773 0.123527 0.127732 0.118661 0.123527 0.118539 0.123442 0.123527 0.127732 0.123442 0.127663 0.127764 0.1314 0.127784 0.131405 0.1314 0.134527 0.131405 0.134507 0.127784 0.131405 0.127773 0.131384 0.131405 0.134507 0.131384 0.134468 0.134527 0.137191 0.134507 0.137143 0.137191 0.139443 0.137143 0.139365 0.134507 0.137143 0.134468 0.13708 0.137143 0.139365 0.13708 0.139275 0.127773 0.131384 0.127732 0.131339 0.131384 0.134468 0.131339 0.134409 0.127732 0.131339 0.127663 0.131271 0.131339 0.134409 0.131271 0.134332 0.134468 0.13708 0.134409 0.137002 0.13708 0.139275 0.137002 0.139173 0.134409 0.137002 0.134332 0.136908 0.137002 0.139173 0.136908 0.139059 0 0.019321 0 0.0186178 0.019321 0.0377531 0.0186178 0.0363965 0 0.0186178 0 0.0180477 0.0186178 0.0363965 0.0180477 0.0353009 0.0377531 0.0543697 0.0363965 0.0527442 0.0543697 0.0685964 0.0527442 0.0671231 0.0363965 0.0527442 0.0353009 0.0513889 0.0527442 0.0671231 0.0513889 0.0658177 0 0.0180477 0 0.0175851 0.0180477 0.0353009 0.0175851 0.0344098 0 0.0175851 0 0.0172085 0.0175851 0.0344098 0.0172085 0.0336801 0.0353009 0.0513889 0.0344098 0.0502515 0.0513889 0.0658177 0.0502515 0.0646646 0.0344098 0.0502515 0.0336801 0.0492915 0.0502515 0.0646646 0.0492915 0.0636472 0.0685964 0.0804425 0.0671231 0.0793292 0.0804425 0.0903859 0.0793292 0.0896187 0.0671231 0.0793292 0.0658177 0.0782724 0.0793292 0.0896187 0.0782724 0.0888474 0.0903859 0.0989381 0.0896187 0.0984227 0.0989381 0.106383 0.0984227 0.10604 0.0896187 0.0984227 0.0888474 0.0978809 0.0984227 0.10604 0.0978809 0.105663 0.0658177 0.0782724 0.0646646 0.0772826 0.0782724 0.0888474 0.0772826 0.0880856 0.0646646 0.0772826 0.0636472 0.0763638 0.0772826 0.0880856 0.0763638 0.0873437 0.0888474 0.0978809 0.0880856 0.0973227 0.0978809 0.105663 0.0973227 0.105259 0.0880856 0.0973227 0.0873437 0.0967569 0.0973227 0.105259 0.0967569 0.104836 0 0.0172085 0 0.0169002 0.0172085 0.0336801 0.0169002 0.0330783 0 0.0169002 0 0.0166461 0.0169002 0.0330783 0.0166461 0.0325783 0.0336801 0.0492915 0.0330783 0.0484768 0.0492915 0.0636472 0.0484768 0.0627491 0.0330783 0.0484768 0.0325783 0.0477818 0.0484768 0.0627491 0.0477818 0.0619557 0 0.0166461 0 0.016435 0.0166461 0.0325783 0.016435 0.0321596 0 0.016435 0 0.0162583 0.016435 0.0321596 0.0162583 0.0318062 0.0325783 0.0477818 0.0321596 0.0471857 0.0477818 0.0619557 0.0471857 0.0612535 0.0321596 0.0471857 0.0318062 0.0466715 0.0471857 0.0612535 0.0466715 0.0606306 0.0636472 0.0763638 0.0627491 0.0755161 0.0763638 0.0873437 0.0755161 0.0866288 0.0627491 0.0755161 0.0619557 0.0747372 0.0755161 0.0866288 0.0747372 0.0859455 0.0873437 0.0967569 0.0866288 0.096191 0.0967569 0.104836 0.096191 0.1044 0.0866288 0.096191 0.0859455 0.095631 0.096191 0.1044 0.095631 0.103955 0.0619557 0.0747372 0.0612535 0.0740232 0.0747372 0.0859455 0.0740232 0.0852966 0.0612535 0.0740232 0.0606306 0.0733697 0.0740232 0.0852966 0.0733697 0.0846832 0.0859455 0.095631 0.0852966 0.0950816 0.095631 0.103955 0.0950816 0.103506 0.0852966 0.0950816 0.0846832 0.0945465 0.0950816 0.103506 0.0945465 0.103056 0.106383 0.112881 0.10604 0.112651 0.112881 0.118539 0.112651 0.118381 0.10604 0.112651 0.105663 0.112387 0.112651 0.118381 0.112387 0.118191 0.118539 0.123442 0.118381 0.123326 0.123442 0.127663 0.123326 0.127567 0.118381 0.123326 0.118191 0.123181 0.123326 0.127567 0.123181 0.127447 0.105663 0.112387 0.105259 0.112094 0.112387 0.118191 0.112094 0.117973 0.105259 0.112094 0.104836 0.111777 0.112094 0.117973 0.111777 0.11773 0.118191 0.123181 0.117973 0.12301 0.123181 0.127447 0.12301 0.127303 0.117973 0.12301 0.11773 0.122817 0.12301 0.127303 0.122817 0.127139 0.127663 0.131271 0.127567 0.13118 0.131271 0.134332 0.13118 0.134236 0.127567 0.13118 0.127447 0.131069 0.13118 0.134236 0.131069 0.134122 0.134332 0.136908 0.134236 0.136799 0.136908 0.139059 0.136799 0.138934 0.134236 0.136799 0.134122 0.136677 0.136799 0.138934 0.136677 0.138797 0.127447 0.131069 0.127303 0.130937 0.131069 0.134122 0.130937 0.133992 0.127303 0.130937 0.127139 0.130787 0.130937 0.133992 0.130787 0.133845 0.134122 0.136677 0.133992 0.13654 0.136677 0.138797 0.13654 0.138648 0.133992 0.13654 0.133845 0.136389 0.13654 0.138648 0.136389 0.138488 0.104836 0.111777 0.1044 0.111441 0.111777 0.11773 0.111441 0.117466 0.1044 0.111441 0.103955 0.111089 0.111441 0.117466 0.111089 0.117184 0.11773 0.122817 0.117466 0.122602 0.122817 0.127139 0.122602 0.126954 0.117466 0.122602 0.117184 0.122368 0.122602 0.126954 0.122368 0.126752 0.103955 0.111089 0.103506 0.110725 0.111089 0.117184 0.110725 0.116886 0.103506 0.110725 0.103056 0.110353 0.110725 0.116886 0.110353 0.116576 0.117184 0.122368 0.116886 0.122118 0.122368 0.126752 0.122118 0.126534 0.116886 0.122118 0.116576 0.121854 0.122118 0.126534 0.121854 0.126302 0.127139 0.130787 0.126954 0.13062 0.130787 0.133845 0.13062 0.133684 0.126954 0.13062 0.126752 0.130436 0.13062 0.133684 0.130436 0.133507 0.133845 0.136389 0.133684 0.136225 0.136389 0.138488 0.136225 0.138317 0.133684 0.136225 0.133507 0.136049 0.136225 0.138317 0.136049 0.138135 0.126752 0.130436 0.126534 0.130237 0.130436 0.133507 0.130237 0.133318 0.126534 0.130237 0.126302 0.130024 0.130237 0.133318 0.130024 0.133115 0.133507 0.136049 0.133318 0.135861 0.136049 0.138135 0.135861 0.137942 0.133318 0.135861 0.133115 0.135661 0.135861 0.137942 0.135661 0.13774 0.13964 0.141684 0.139607 0.141607 0.141684 0.1434 0.141607 0.143283 0.139607 0.141607 0.139564 0.141523 0.141607 0.143283 0.141523 0.14316 0.1434 0.144829 0.143283 0.144675 0.144829 0.146009 0.144675 0.145822 0.143283 0.144675 0.14316 0.144518 0.144675 0.145822 0.144518 0.145635 0.139564 0.141523 0.139509 0.141431 0.141523 0.14316 0.141431 0.143033 0.139509 0.141431 0.139443 0.14133 0.141431 0.143033 0.14133 0.1429 0.14316 0.144518 0.143033 0.144358 0.144518 0.145635 0.144358 0.145446 0.143033 0.144358 0.1429 0.144195 0.144358 0.145446 0.144195 0.145256 0.146009 0.146975 0.145822 0.146761 0.146975 0.147761 0.146761 0.147523 0.145822 0.146761 0.145635 0.146547 0.146761 0.147523 0.146547 0.147286 0.147761 0.148396 0.147523 0.148137 0.148396 0.148904 0.148137 0.148628 0.147523 0.148137 0.147286 0.14788 0.148137 0.148628 0.14788 0.148355 0.145635 0.146547 0.145446 0.146332 0.146547 0.147286 0.146332 0.147049 0.145446 0.146332 0.145256 0.146118 0.146332 0.147049 0.146118 0.146813 0.147286 0.14788 0.147049 0.147624 0.14788 0.148355 0.147624 0.148083 0.147049 0.147624 0.146813 0.147369 0.147624 0.148083 0.147369 0.147812 0.139443 0.14133 0.139365 0.141221 0.14133 0.1429 0.141221 0.142761 0.139365 0.141221 0.139275 0.141104 0.141221 0.142761 0.141104 0.142616 0.1429 0.144195 0.142761 0.144028 0.144195 0.145256 0.144028 0.145063 0.142761 0.144028 0.142616 0.143857 0.144028 0.145063 0.143857 0.144867 0.139275 0.141104 0.139173 0.140977 0.141104 0.142616 0.140977 0.142465 0.139173 0.140977 0.139059 0.140841 0.140977 0.142465 0.140841 0.142306 0.142616 0.143857 0.142465 0.143681 0.143857 0.144867 0.143681 0.144669 0.142465 0.143681 0.142306 0.1435 0.143681 0.144669 0.1435 0.144467 0.145256 0.146118 0.145063 0.145902 0.146118 0.146813 0.145902 0.146576 0.145063 0.145902 0.144867 0.145684 0.145902 0.146576 0.145684 0.146339 0.146813 0.147369 0.146576 0.147115 0.147369 0.147812 0.147115 0.147542 0.146576 0.147115 0.146339 0.14686 0.147115 0.147542 0.14686 0.147273 0.144867 0.145684 0.144669 0.145464 0.145684 0.146339 0.145464 0.1461 0.144669 0.145464 0.144467 0.145242 0.145464 0.1461 0.145242 0.14586 0.146339 0.14686 0.1461 0.146605 0.14686 0.147273 0.146605 0.147003 0.1461 0.146605 0.14586 0.146349 0.146605 0.147003 0.146349 0.146733 0.148904 0.149307 0.148628 0.149018 0.149307 0.149626 0.149018 0.149326 0.148628 0.149018 0.148355 0.148731 0.149018 0.149326 0.148731 0.149028 0.149626 0.149876 0.149326 0.149567 0.149876 0.15007 0.149567 0.149754 0.149326 0.149567 0.149028 0.149259 0.149567 0.149754 0.149259 0.149439 0.148355 0.148731 0.148083 0.148446 0.148731 0.149028 0.148446 0.148731 0.148083 0.148446 0.147812 0.148162 0.148446 0.148731 0.148162 0.148436 0.149028 0.149259 0.148731 0.148954 0.149259 0.149439 0.148954 0.149127 0.148731 0.148954 0.148436 0.14865 0.148954 0.149127 0.14865 0.148815 0.15007 0.15022 0.149754 0.149898 0.15022 0.150334 0.149898 0.150009 0.149754 0.149898 0.149439 0.149578 0.149898 0.150009 0.149578 0.149684 0.150334 0.150421 0.150009 0.150093 0.150421 0.150487 0.150093 0.150156 0.150009 0.150093 0.149684 0.149765 0.150093 0.150156 0.149765 0.149826 0.149439 0.149578 0.149127 0.14926 0.149578 0.149684 0.14926 0.149361 0.149127 0.14926 0.148815 0.148942 0.14926 0.149361 0.148942 0.149039 0.149684 0.149765 0.149361 0.149439 0.149765 0.149826 0.149439 0.149497 0.149361 0.149439 0.149039 0.149113 0.149439 0.149497 0.149113 0.149169 0.147812 0.148162 0.147542 0.147879 0.148162 0.148436 0.147879 0.148142 0.147542 0.147879 0.147273 0.147596 0.147879 0.148142 0.147596 0.147849 0.148436 0.14865 0.148142 0.148347 0.14865 0.148815 0.148347 0.148505 0.148142 0.148347 0.147849 0.148045 0.148347 0.148505 0.148045 0.148195 0.147273 0.147596 0.147003 0.147314 0.147596 0.147849 0.147314 0.147556 0.147003 0.147314 0.146733 0.147032 0.147314 0.147556 0.147032 0.147264 0.147849 0.148045 0.147556 0.147743 0.148045 0.148195 0.147743 0.147887 0.147556 0.147743 0.147264 0.147442 0.147743 0.147887 0.147442 0.147579 0.148815 0.148942 0.148505 0.148626 0.148942 0.149039 0.148626 0.148718 0.148505 0.148626 0.148195 0.148311 0.148626 0.148718 0.148311 0.148398 0.149039 0.149113 0.148718 0.148788 0.149113 0.149169 0.148788 0.148841 0.148718 0.148788 0.148398 0.148465 0.148788 0.148841 0.148465 0.148514 0.148195 0.148311 0.147887 0.147996 0.148311 0.148398 0.147996 0.148079 0.147887 0.147996 0.147579 0.147682 0.147996 0.148079 0.147682 0.14776 0.148398 0.148465 0.148079 0.148141 0.148465 0.148514 0.148141 0.148188 0.148079 0.148141 0.14776 0.147819 0.148141 0.148188 0.147819 0.147862 0.139059 0.140841 0.138934 0.140696 0.140841 0.142306 0.140696 0.14214 0.138934 0.140696 0.138797 0.140542 0.140696 0.14214 0.140542 0.141967 0.142306 0.1435 0.14214 0.143314 0.1435 0.144467 0.143314 0.14426 0.14214 0.143314 0.141967 0.143122 0.143314 0.14426 0.143122 0.14405 0.138797 0.140542 0.138648 0.140378 0.140542 0.141967 0.140378 0.141787 0.138648 0.140378 0.138488 0.140205 0.140378 0.141787 0.140205 0.141599 0.141967 0.143122 0.141787 0.142925 0.143122 0.14405 0.142925 0.143835 0.141787 0.142925 0.141599 0.142721 0.142925 0.143835 0.142721 0.143616 0.144467 0.145242 0.14426 0.145018 0.145242 0.14586 0.145018 0.145619 0.14426 0.145018 0.14405 0.14479 0.145018 0.145619 0.14479 0.145375 0.14586 0.146349 0.145619 0.146092 0.146349 0.146733 0.146092 0.146463 0.145619 0.146092 0.145375 0.145834 0.146092 0.146463 0.145834 0.146191 0.14405 0.14479 0.143835 0.144559 0.14479 0.145375 0.144559 0.145129 0.143835 0.144559 0.143616 0.144324 0.144559 0.145129 0.144324 0.14488 0.145375 0.145834 0.145129 0.145574 0.145834 0.146191 0.145574 0.145919 0.145129 0.145574 0.14488 0.145312 0.145574 0.145919 0.145312 0.145645 0.138488 0.140205 0.138317 0.140023 0.140205 0.141599 0.140023 0.141404 0.138317 0.140023 0.138135 0.139832 0.140023 0.141404 0.139832 0.141201 0.141599 0.142721 0.141404 0.142511 0.142721 0.143616 0.142511 0.143392 0.141404 0.142511 0.141201 0.142295 0.142511 0.143392 0.142295 0.143163 0.138135 0.139832 0.137942 0.139632 0.139832 0.141201 0.139632 0.14099 0.137942 0.139632 0.13774 0.139422 0.139632 0.14099 0.139422 0.140772 0.141201 0.142295 0.14099 0.142073 0.142295 0.143163 0.142073 0.142928 0.14099 0.142073 0.140772 0.141845 0.142073 0.142928 0.141845 0.142688 0.143616 0.144324 0.143392 0.144086 0.144324 0.14488 0.144086 0.144628 0.143392 0.144086 0.143163 0.143843 0.144086 0.144628 0.143843 0.144373 0.14488 0.145312 0.144628 0.145048 0.145312 0.145645 0.145048 0.14537 0.144628 0.145048 0.144373 0.144781 0.145048 0.14537 0.144781 0.145093 0.143163 0.143843 0.142928 0.143597 0.143843 0.144373 0.143597 0.144115 0.142928 0.143597 0.142688 0.143346 0.143597 0.144115 0.143346 0.143853 0.144373 0.144781 0.144115 0.144512 0.144781 0.145093 0.144512 0.144813 0.144115 0.144512 0.143853 0.14424 0.144512 0.144813 0.14424 0.144532 0.146733 0.147032 0.146463 0.14675 0.147032 0.147264 0.14675 0.146972 0.146463 0.14675 0.146191 0.146468 0.14675 0.146972 0.146468 0.14668 0.147264 0.147442 0.146972 0.147142 0.147442 0.147579 0.147142 0.147271 0.146972 0.147142 0.14668 0.146841 0.147142 0.147271 0.146841 0.146963 0.146191 0.146468 0.145919 0.146184 0.146468 0.14668 0.146184 0.146387 0.145919 0.146184 0.145645 0.1459 0.146184 0.146387 0.1459 0.146094 0.14668 0.146841 0.146387 0.14654 0.146841 0.146963 0.14654 0.146656 0.146387 0.14654 0.146094 0.146239 0.14654 0.146656 0.146239 0.146348 0.147579 0.147682 0.147271 0.147368 0.147682 0.14776 0.147368 0.147442 0.147271 0.147368 0.146963 0.147055 0.147368 0.147442 0.147055 0.147123 0.14776 0.147819 0.147442 0.147496 0.147819 0.147862 0.147496 0.147537 0.147442 0.147496 0.147123 0.147174 0.147496 0.147537 0.147174 0.147212 0.146963 0.147055 0.146656 0.146742 0.147055 0.147123 0.146742 0.146805 0.146656 0.146742 0.146348 0.146428 0.146742 0.146805 0.146428 0.146487 0.147123 0.147174 0.146805 0.146852 0.147174 0.147212 0.146852 0.146887 0.146805 0.146852 0.146487 0.146531 0.146852 0.146887 0.146531 0.146562 0.145645 0.1459 0.14537 0.145615 0.1459 0.146094 0.145615 0.1458 0.14537 0.145615 0.145093 0.145328 0.145615 0.1458 0.145328 0.145504 0.146094 0.146239 0.1458 0.145938 0.146239 0.146348 0.145938 0.14604 0.1458 0.145938 0.145504 0.145635 0.145938 0.14604 0.145635 0.145731 0.145093 0.145328 0.144813 0.14504 0.145328 0.145504 0.14504 0.145208 0.144813 0.14504 0.144532 0.14475 0.14504 0.145208 0.14475 0.14491 0.145504 0.145635 0.145208 0.145332 0.145635 0.145731 0.145332 0.145422 0.145208 0.145332 0.14491 0.145028 0.145332 0.145422 0.145028 0.145112 0.146348 0.146428 0.14604 0.146115 0.146428 0.146487 0.146115 0.146169 0.14604 0.146115 0.145731 0.145801 0.146115 0.146169 0.145801 0.145851 0.146487 0.146531 0.146169 0.146209 0.146531 0.146562 0.146209 0.146237 0.146169 0.146209 0.145851 0.145887 0.146209 0.146237 0.145887 0.145912 0.145731 0.145801 0.145422 0.145487 0.145801 0.145851 0.145487 0.145533 0.145422 0.145487 0.145112 0.145172 0.145487 0.145533 0.145172 0.145214 0.145851 0.145887 0.145533 0.145565 0.145887 0.145912 0.145565 0.145587 0.145533 0.145565 0.145214 0.145243 0.145565 0.145587 0.145243 0.145262 0 0.0162583 0 0.016109 0.0162583 0.0318062 0.016109 0.0315056 0 0.016109 0 0.0159817 0.016109 0.0315056 0.0159817 0.0312476 0.0318062 0.0466715 0.0315056 0.0462254 0.0466715 0.0606306 0.0462254 0.0600765 0.0315056 0.0462254 0.0312476 0.0458362 0.0462254 0.0600765 0.0458362 0.0595821 0 0.0159817 0 0.0158722 0.0159817 0.0312476 0.0158722 0.0310245 0 0.0158722 0 0.0157771 0.0158722 0.0310245 0.0157771 0.0308297 0.0312476 0.0458362 0.0310245 0.0454945 0.0458362 0.0595821 0.0454945 0.0591395 0.0310245 0.0454945 0.0308297 0.0451927 0.0454945 0.0591395 0.0451927 0.0587419 0.0606306 0.0733697 0.0600765 0.0727718 0.0733697 0.0846832 0.0727718 0.0841053 0.0600765 0.0727718 0.0595821 0.0722248 0.0727718 0.0841053 0.0722248 0.0835622 0.0846832 0.0945465 0.0841053 0.0940281 0.0945465 0.103056 0.0940281 0.102611 0.0841053 0.0940281 0.0835622 0.0935283 0.0940281 0.102611 0.0935283 0.102171 0.0595821 0.0722248 0.0591395 0.0717237 0.0722248 0.0835622 0.0717237 0.0830527 0.0591395 0.0717237 0.0587419 0.0712644 0.0717237 0.0830527 0.0712644 0.0825751 0.0835622 0.0935283 0.0830527 0.093048 0.0935283 0.102171 0.093048 0.101739 0.0830527 0.093048 0.0825751 0.0925879 0.093048 0.101739 0.0925879 0.101316 0 0.0157771 0 0.0156936 0.0157771 0.0308297 0.0156936 0.0306583 0 0.0156936 0 0.0156197 0.0156936 0.0306583 0.0156197 0.030506 0.0308297 0.0451927 0.0306583 0.0449245 0.0451927 0.0587419 0.0449245 0.0583832 0.0306583 0.0449245 0.030506 0.0446845 0.0449245 0.0583832 0.0446845 0.0580585 0 0.0156197 0 0.0155535 0.0156197 0.030506 0.0155535 0.0303697 0 0.0155535 0