# vtk DataFile Version 3.0
#This file was generated by the deal.II library on 2022/1/6 at 23:02:39
ASCII
DATASET UNSTRUCTURED_GRID

POINTS 16384 double
0 0 0
0.1875 0 0
0 0.046875 0
0.1875 0.046875 0
0.1875 0 0
0.375 0 0
0.1875 0.046875 0
0.375 0.046875 0
0 0.046875 0
0.1875 0.046875 0
0 0.09375 0
0.1875 0.09375 0
0.1875 0.046875 0
0.375 0.046875 0
0.1875 0.09375 0
0.375 0.09375 0
0.375 0 0
0.5625 0 0
0.375 0.046875 0
0.5625 0.046875 0
0.5625 0 0
0.75 0 0
0.5625 0.046875 0
0.75 0.046875 0
0.375 0.046875 0
0.5625 0.046875 0
0.375 0.09375 0
0.5625 0.09375 0
0.5625 0.046875 0
0.75 0.046875 0
0.5625 0.09375 0
0.75 0.09375 0
0 0.09375 0
0.1875 0.09375 0
0 0.140625 0
0.1875 0.140625 0
0.1875 0.09375 0
0.375 0.09375 0
0.1875 0.140625 0
0.375 0.140625 0
0 0.140625 0
0.1875 0.140625 0
0 0.1875 0
0.1875 0.1875 0
0.1875 0.140625 0
0.375 0.140625 0
0.1875 0.1875 0
0.375 0.1875 0
0.375 0.09375 0
0.5625 0.09375 0
0.375 0.140625 0
0.5625 0.140625 0
0.5625 0.09375 0
0.75 0.09375 0
0.5625 0.140625 0
0.75 0.140625 0
0.375 0.140625 0
0.5625 0.140625 0
0.375 0.1875 0
0.5625 0.1875 0
0.5625 0.140625 0
0.75 0.140625 0
0.5625 0.1875 0
0.75 0.1875 0
0.75 0 0
0.9375 0 0
0.75 0.046875 0
0.9375 0.046875 0
0.9375 0 0
1.125 0 0
0.9375 0.046875 0
1.125 0.046875 0
0.75 0.046875 0
0.9375 0.046875 0
0.75 0.09375 0
0.9375 0.09375 0
0.9375 0.046875 0
1.125 0.046875 0
0.9375 0.09375 0
1.125 0.09375 0
1.125 0 0
1.3125 0 0
1.125 0.046875 0
1.3125 0.046875 0
1.3125 0 0
1.5 0 0
1.3125 0.046875 0
1.5 0.046875 0
1.125 0.046875 0
1.3125 0.046875 0
1.125 0.09375 0
1.3125 0.09375 0
1.3125 0.046875 0
1.5 0.046875 0
1.3125 0.09375 0
1.5 0.09375 0
0.75 0.09375 0
0.9375 0.09375 0
0.75 0.140625 0
0.9375 0.140625 0
0.9375 0.09375 0
1.125 0.09375 0
0.9375 0.140625 0
1.125 0.140625 0
0.75 0.140625 0
0.9375 0.140625 0
0.75 0.1875 0
0.9375 0.1875 0
0.9375 0.140625 0
1.125 0.140625 0
0.9375 0.1875 0
1.125 0.1875 0
1.125 0.09375 0
1.3125 0.09375 0
1.125 0.140625 0
1.3125 0.140625 0
1.3125 0.09375 0
1.5 0.09375 0
1.3125 0.140625 0
1.5 0.140625 0
1.125 0.140625 0
1.3125 0.140625 0
1.125 0.1875 0
1.3125 0.1875 0
1.3125 0.140625 0
1.5 0.140625 0
1.3125 0.1875 0
1.5 0.1875 0
0 0.1875 0
0.1875 0.1875 0
0 0.234375 0
0.1875 0.234375 0
0.1875 0.1875 0
0.375 0.1875 0
0.1875 0.234375 0
0.375 0.234375 0
0 0.234375 0
0.1875 0.234375 0
0 0.28125 0
0.1875 0.28125 0
0.1875 0.234375 0
0.375 0.234375 0
0.1875 0.28125 0
0.375 0.28125 0
0.375 0.1875 0
0.5625 0.1875 0
0.375 0.234375 0
0.5625 0.234375 0
0.5625 0.1875 0
0.75 0.1875 0
0.5625 0.234375 0
0.75 0.234375 0
0.375 0.234375 0
0.5625 0.234375 0
0.375 0.28125 0
0.5625 0.28125 0
0.5625 0.234375 0
0.75 0.234375 0
0.5625 0.28125 0
0.75 0.28125 0
0 0.28125 0
0.1875 0.28125 0
0 0.328125 0
0.1875 0.328125 0
0.1875 0.28125 0
0.375 0.28125 0
0.1875 0.328125 0
0.375 0.328125 0
0 0.328125 0
0.1875 0.328125 0
0 0.375 0
0.1875 0.375 0
0.1875 0.328125 0
0.375 0.328125 0
0.1875 0.375 0
0.375 0.375 0
0.375 0.28125 0
0.5625 0.28125 0
0.375 0.328125 0
0.5625 0.328125 0
0.5625 0.28125 0
0.75 0.28125 0
0.5625 0.328125 0
0.75 0.328125 0
0.375 0.328125 0
0.5625 0.328125 0
0.375 0.375 0
0.5625 0.375 0
0.5625 0.328125 0
0.75 0.328125 0
0.5625 0.375 0
0.75 0.375 0
0.75 0.1875 0
0.9375 0.1875 0
0.75 0.234375 0
0.9375 0.234375 0
0.9375 0.1875 0
1.125 0.1875 0
0.9375 0.234375 0
1.125 0.234375 0
0.75 0.234375 0
0.9375 0.234375 0
0.75 0.28125 0
0.9375 0.28125 0
0.9375 0.234375 0
1.125 0.234375 0
0.9375 0.28125 0
1.125 0.28125 0
1.125 0.1875 0
1.3125 0.1875 0
1.125 0.234375 0
1.3125 0.234375 0
1.3125 0.1875 0
1.5 0.1875 0
1.3125 0.234375 0
1.5 0.234375 0
1.125 0.234375 0
1.3125 0.234375 0
1.125 0.28125 0
1.3125 0.28125 0
1.3125 0.234375 0
1.5 0.234375 0
1.3125 0.28125 0
1.5 0.28125 0
0.75 0.28125 0
0.9375 0.28125 0
0.75 0.328125 0
0.9375 0.328125 0
0.9375 0.28125 0
1.125 0.28125 0
0.9375 0.328125 0
1.125 0.328125 0
0.75 0.328125 0
0.9375 0.328125 0
0.75 0.375 0
0.9375 0.375 0
0.9375 0.328125 0
1.125 0.328125 0
0.9375 0.375 0
1.125 0.375 0
1.125 0.28125 0
1.3125 0.28125 0
1.125 0.328125 0
1.3125 0.328125 0
1.3125 0.28125 0
1.5 0.28125 0
1.3125 0.328125 0
1.5 0.328125 0
1.125 0.328125 0
1.3125 0.328125 0
1.125 0.375 0
1.3125 0.375 0
1.3125 0.328125 0
1.5 0.328125 0
1.3125 0.375 0
1.5 0.375 0
1.5 0 0
1.6875 0 0
1.5 0.046875 0
1.6875 0.046875 0
1.6875 0 0
1.875 0 0
1.6875 0.046875 0
1.875 0.046875 0
1.5 0.046875 0
1.6875 0.046875 0
1.5 0.09375 0
1.6875 0.09375 0
1.6875 0.046875 0
1.875 0.046875 0
1.6875 0.09375 0
1.875 0.09375 0
1.875 0 0
2.0625 0 0
1.875 0.046875 0
2.0625 0.046875 0
2.0625 0 0
2.25 0 0
2.0625 0.046875 0
2.25 0.046875 0
1.875 0.046875 0
2.0625 0.046875 0
1.875 0.09375 0
2.0625 0.09375 0
2.0625 0.046875 0
2.25 0.046875 0
2.0625 0.09375 0
2.25 0.09375 0
1.5 0.09375 0
1.6875 0.09375 0
1.5 0.140625 0
1.6875 0.140625 0
1.6875 0.09375 0
1.875 0.09375 0
1.6875 0.140625 0
1.875 0.140625 0
1.5 0.140625 0
1.6875 0.140625 0
1.5 0.1875 0
1.6875 0.1875 0
1.6875 0.140625 0
1.875 0.140625 0
1.6875 0.1875 0
1.875 0.1875 0
1.875 0.09375 0
2.0625 0.09375 0
1.875 0.140625 0
2.0625 0.140625 0
2.0625 0.09375 0
2.25 0.09375 0
2.0625 0.140625 0
2.25 0.140625 0
1.875 0.140625 0
2.0625 0.140625 0
1.875 0.1875 0
2.0625 0.1875 0
2.0625 0.140625 0
2.25 0.140625 0
2.0625 0.1875 0
2.25 0.1875 0
2.25 0 0
2.4375 0 0
2.25 0.046875 0
2.4375 0.046875 0
2.4375 0 0
2.625 0 0
2.4375 0.046875 0
2.625 0.046875 0
2.25 0.046875 0
2.4375 0.046875 0
2.25 0.09375 0
2.4375 0.09375 0
2.4375 0.046875 0
2.625 0.046875 0
2.4375 0.09375 0
2.625 0.09375 0
2.625 0 0
2.8125 0 0
2.625 0.046875 0
2.8125 0.046875 0
2.8125 0 0
3 0 0
2.8125 0.046875 0
3 0.046875 0
2.625 0.046875 0
2.8125 0.046875 0
2.625 0.09375 0
2.8125 0.09375 0
2.8125 0.046875 0
3 0.046875 0
2.8125 0.09375 0
3 0.09375 0
2.25 0.09375 0
2.4375 0.09375 0
2.25 0.140625 0
2.4375 0.140625 0
2.4375 0.09375 0
2.625 0.09375 0
2.4375 0.140625 0
2.625 0.140625 0
2.25 0.140625 0
2.4375 0.140625 0
2.25 0.1875 0
2.4375 0.1875 0
2.4375 0.140625 0
2.625 0.140625 0
2.4375 0.1875 0
2.625 0.1875 0
2.625 0.09375 0
2.8125 0.09375 0
2.625 0.140625 0
2.8125 0.140625 0
2.8125 0.09375 0
3 0.09375 0
2.8125 0.140625 0
3 0.140625 0
2.625 0.140625 0
2.8125 0.140625 0
2.625 0.1875 0
2.8125 0.1875 0
2.8125 0.140625 0
3 0.140625 0
2.8125 0.1875 0
3 0.1875 0
1.5 0.1875 0
1.6875 0.1875 0
1.5 0.234375 0
1.6875 0.234375 0
1.6875 0.1875 0
1.875 0.1875 0
1.6875 0.234375 0
1.875 0.234375 0
1.5 0.234375 0
1.6875 0.234375 0
1.5 0.28125 0
1.6875 0.28125 0
1.6875 0.234375 0
1.875 0.234375 0
1.6875 0.28125 0
1.875 0.28125 0
1.875 0.1875 0
2.0625 0.1875 0
1.875 0.234375 0
2.0625 0.234375 0
2.0625 0.1875 0
2.25 0.1875 0
2.0625 0.234375 0
2.25 0.234375 0
1.875 0.234375 0
2.0625 0.234375 0
1.875 0.28125 0
2.0625 0.28125 0
2.0625 0.234375 0
2.25 0.234375 0
2.0625 0.28125 0
2.25 0.28125 0
1.5 0.28125 0
1.6875 0.28125 0
1.5 0.328125 0
1.6875 0.328125 0
1.6875 0.28125 0
1.875 0.28125 0
1.6875 0.328125 0
1.875 0.328125 0
1.5 0.328125 0
1.6875 0.328125 0
1.5 0.375 0
1.6875 0.375 0
1.6875 0.328125 0
1.875 0.328125 0
1.6875 0.375 0
1.875 0.375 0
1.875 0.28125 0
2.0625 0.28125 0
1.875 0.328125 0
2.0625 0.328125 0
2.0625 0.28125 0
2.25 0.28125 0
2.0625 0.328125 0
2.25 0.328125 0
1.875 0.328125 0
2.0625 0.328125 0
1.875 0.375 0
2.0625 0.375 0
2.0625 0.328125 0
2.25 0.328125 0
2.0625 0.375 0
2.25 0.375 0
2.25 0.1875 0
2.4375 0.1875 0
2.25 0.234375 0
2.4375 0.234375 0
2.4375 0.1875 0
2.625 0.1875 0
2.4375 0.234375 0
2.625 0.234375 0
2.25 0.234375 0
2.4375 0.234375 0
2.25 0.28125 0
2.4375 0.28125 0
2.4375 0.234375 0
2.625 0.234375 0
2.4375 0.28125 0
2.625 0.28125 0
2.625 0.1875 0
2.8125 0.1875 0
2.625 0.234375 0
2.8125 0.234375 0
2.8125 0.1875 0
3 0.1875 0
2.8125 0.234375 0
3 0.234375 0
2.625 0.234375 0
2.8125 0.234375 0
2.625 0.28125 0
2.8125 0.28125 0
2.8125 0.234375 0
3 0.234375 0
2.8125 0.28125 0
3 0.28125 0
2.25 0.28125 0
2.4375 0.28125 0
2.25 0.328125 0
2.4375 0.328125 0
2.4375 0.28125 0
2.625 0.28125 0
2.4375 0.328125 0
2.625 0.328125 0
2.25 0.328125 0
2.4375 0.328125 0
2.25 0.375 0
2.4375 0.375 0
2.4375 0.328125 0
2.625 0.328125 0
2.4375 0.375 0
2.625 0.375 0
2.625 0.28125 0
2.8125 0.28125 0
2.625 0.328125 0
2.8125 0.328125 0
2.8125 0.28125 0
3 0.28125 0
2.8125 0.328125 0
3 0.328125 0
2.625 0.328125 0
2.8125 0.328125 0
2.625 0.375 0
2.8125 0.375 0
2.8125 0.328125 0
3 0.328125 0
2.8125 0.375 0
3 0.375 0
0 0.375 0
0.1875 0.375 0
0 0.421875 0
0.1875 0.421875 0
0.1875 0.375 0
0.375 0.375 0
0.1875 0.421875 0
0.375 0.421875 0
0 0.421875 0
0.1875 0.421875 0
0 0.46875 0
0.1875 0.46875 0
0.1875 0.421875 0
0.375 0.421875 0
0.1875 0.46875 0
0.375 0.46875 0
0.375 0.375 0
0.5625 0.375 0
0.375 0.421875 0
0.5625 0.421875 0
0.5625 0.375 0
0.75 0.375 0
0.5625 0.421875 0
0.75 0.421875 0
0.375 0.421875 0
0.5625 0.421875 0
0.375 0.46875 0
0.5625 0.46875 0
0.5625 0.421875 0
0.75 0.421875 0
0.5625 0.46875 0
0.75 0.46875 0
0 0.46875 0
0.1875 0.46875 0
0 0.515625 0
0.1875 0.515625 0
0.1875 0.46875 0
0.375 0.46875 0
0.1875 0.515625 0
0.375 0.515625 0
0 0.515625 0
0.1875 0.515625 0
0 0.5625 0
0.1875 0.5625 0
0.1875 0.515625 0
0.375 0.515625 0
0.1875 0.5625 0
0.375 0.5625 0
0.375 0.46875 0
0.5625 0.46875 0
0.375 0.515625 0
0.5625 0.515625 0
0.5625 0.46875 0
0.75 0.46875 0
0.5625 0.515625 0
0.75 0.515625 0
0.375 0.515625 0
0.5625 0.515625 0
0.375 0.5625 0
0.5625 0.5625 0
0.5625 0.515625 0
0.75 0.515625 0
0.5625 0.5625 0
0.75 0.5625 0
0.75 0.375 0
0.9375 0.375 0
0.75 0.421875 0
0.9375 0.421875 0
0.9375 0.375 0
1.125 0.375 0
0.9375 0.421875 0
1.125 0.421875 0
0.75 0.421875 0
0.9375 0.421875 0
0.75 0.46875 0
0.9375 0.46875 0
0.9375 0.421875 0
1.125 0.421875 0
0.9375 0.46875 0
1.125 0.46875 0
1.125 0.375 0
1.3125 0.375 0
1.125 0.421875 0
1.3125 0.421875 0
1.3125 0.375 0
1.5 0.375 0
1.3125 0.421875 0
1.5 0.421875 0
1.125 0.421875 0
1.3125 0.421875 0
1.125 0.46875 0
1.3125 0.46875 0
1.3125 0.421875 0
1.5 0.421875 0
1.3125 0.46875 0
1.5 0.46875 0
0.75 0.46875 0
0.9375 0.46875 0
0.75 0.515625 0
0.9375 0.515625 0
0.9375 0.46875 0
1.125 0.46875 0
0.9375 0.515625 0
1.125 0.515625 0
0.75 0.515625 0
0.9375 0.515625 0
[...]
POINT_DATA 16384
SCALARS x_displacement double 1
LOOKUP_TABLE default
0 0.0339447 0 0.0303097 0.0339447 0.0599601 0.0303097 0.0582196 0 0.0303097 0 0.0278181 0.0303097 0.0582196 0.0278181 0.0553882 0.0599601 0.0764963 0.0582196 0.0751198 0.0764963 0.0833851 0.0751198 0.0825074 0.0582196 0.0751198 0.0553882 0.0730662 0.0751198 0.0825074 0.0730662 0.0811951 0 0.0278181 0 0.0257787 0.0278181 0.0553882 0.0257787 0.051774 0 0.0257787 0 0.0240706 0.0257787 0.051774 0.0240706 0.0481137 0.0553882 0.0730662 0.051774 0.0702323 0.0730662 0.0811951 0.0702323 0.0794863 0.051774 0.0702323 0.0481137 0.0664698 0.0702323 0.0794863 0.0664698 0.0775119 0.0833851 0.0899793 0.0825074 0.0895716 0.0899793 0.0972332 0.0895716 0.0971768 0.0825074 0.0895716 0.0811951 0.0889324 0.0895716 0.0971768 0.0889324 0.096943 0.0972332 0.104663 0.0971768 0.104763 0.104663 0.111878 0.104763 0.112055 0.0971768 0.104763 0.096943 0.104738 0.104763 0.112055 0.104738 0.112138 0.0811951 0.0889324 0.0794863 0.0881019 0.0889324 0.096943 0.0881019 0.0965599 0.0794863 0.0881019 0.0775119 0.0871265 0.0881019 0.0965599 0.0871265 0.096049 0.096943 0.104738 0.0965599 0.104598 0.104738 0.112138 0.104598 0.112133 0.0965599 0.104598 0.096049 0.104358 0.104598 0.112133 0.104358 0.112046 0 0.0240706 0 0.0226276 0.0240706 0.0481137 0.0226276 0.0446956 0 0.0226276 0 0.0213621 0.0226276 0.0446956 0.0213621 0.0419846 0.0481137 0.0664698 0.0446956 0.0626587 0.0664698 0.0775119 0.0626587 0.0755069 0.0446956 0.0626587 0.0419846 0.0596026 0.0626587 0.0755069 0.0596026 0.0735066 0 0.0213621 0 0.0202967 0.0213621 0.0419846 0.0202967 0.0398328 0 0.0202967 0 0.0194196 0.0202967 0.0398328 0.0194196 0.0381167 0.0419846 0.0596026 0.0398328 0.0571563 0.0596026 0.0735066 0.0571563 0.0716376 0.0398328 0.0571563 0.0381167 0.0551567 0.0571563 0.0716376 0.0551567 0.0699482 0.0775119 0.0871265 0.0755069 0.0860289 0.0871265 0.096049 0.0860289 0.095438 0.0755069 0.0860289 0.0735066 0.0848658 0.0860289 0.095438 0.0848658 0.094748 0.096049 0.104358 0.095438 0.10403 0.104358 0.112046 0.10403 0.111887 0.095438 0.10403 0.094748 0.103629 0.10403 0.111887 0.103629 0.111664 0.0735066 0.0848658 0.0716376 0.0836702 0.0848658 0.094748 0.0836702 0.0940031 0.0716376 0.0836702 0.0699482 0.082483 0.0836702 0.0940031 0.082483 0.0932221 0.094748 0.103629 0.0940031 0.103167 0.103629 0.111664 0.103167 0.111385 0.0940031 0.103167 0.0932221 0.102659 0.103167 0.111385 0.102659 0.111058 0.111878 0.118696 0.112055 0.118907 0.118696 0.125029 0.118907 0.125243 0.112055 0.118907 0.112138 0.119042 0.118907 0.125243 0.119042 0.125397 0.125029 0.130834 0.125243 0.131031 0.130834 0.136097 0.131031 0.136265 0.125243 0.131031 0.125397 0.131181 0.131031 0.136265 0.131181 0.136396 0.112138 0.119042 0.112133 0.119108 0.119042 0.125397 0.119108 0.125494 0.112133 0.119108 0.112046 0.119108 0.119108 0.125494 0.119108 0.125539 0.125397 0.131181 0.125494 0.131286 0.131181 0.136396 0.131286 0.13649 0.125494 0.131286 0.125539 0.131346 0.131286 0.13649 0.131346 0.136549 0.136097 0.140822 0.136265 0.140955 0.140822 0.145028 0.140955 0.14512 0.136265 0.140955 0.136396 0.141057 0.140955 0.14512 0.141057 0.145188 0.145028 0.14874 0.14512 0.148789 0.14874 0.151991 0.148789 0.151998 0.14512 0.148789 0.145188 0.14882 0.148789 0.151998 0.14882 0.151991 0.136396 0.141057 0.13649 0.14113 0.141057 0.145188 0.14113 0.145232 0.13649 0.14113 0.136549 0.141174 0.14113 0.145232 0.141174 0.145254 0.145188 0.14882 0.145232 0.148833 0.14882 0.151991 0.148833 0.151969 0.145232 0.148833 0.145254 0.148827 0.148833 0.151969 0.148827 0.151934 0.112046 0.119108 0.111887 0.119048 0.119108 0.125539 0.119048 0.125533 0.111887 0.119048 0.111664 0.118933 0.119048 0.125533 0.118933 0.125481 0.125539 0.131346 0.125533 0.131366 0.131346 0.136549 0.131366 0.136574 0.125533 0.131366 0.125481 0.131346 0.131366 0.136574 0.131346 0.136566 0.111664 0.118933 0.111385 0.118768 0.118933 0.125481 0.118768 0.125386 0.111385 0.118768 0.111058 0.11856 0.118768 0.125386 0.11856 0.125253 0.125481 0.131346 0.125386 0.13129 0.131346 0.136566 0.13129 0.136528 0.125386 0.13129 0.125253 0.131201 0.13129 0.136528 0.131201 0.13646 0.136549 0.141174 0.136574 0.14119 0.141174 0.145254 0.14119 0.145253 0.136574 0.14119 0.136566 0.14118 0.14119 0.145253 0.14118 0.14523 0.145254 0.148827 0.145253 0.148803 0.148827 0.151934 0.148803 0.151884 0.145253 0.148803 0.14523 0.148762 0.148803 0.151884 0.148762 0.15182 0.136566 0.14118 0.136528 0.141144 0.14118 0.14523 0.141144 0.145187 0.136528 0.141144 0.13646 0.141084 0.141144 0.145187 0.141084 0.145122 0.14523 0.148762 0.145187 0.148703 0.148762 0.15182 0.148703 0.151742 0.145187 0.148703 0.145122 0.148628 0.148703 0.151742 0.148628 0.15165 0 0.0194196 0 0.0187054 0.0194196 0.0381167 0.0187054 0.0367389 0 0.0187054 0 0.0181261 0.0187054 0.0367389 0.0181261 0.0356253 0.0381167 0.0551567 0.0367389 0.0535023 0.0551567 0.0699482 0.0535023 0.068442 0.0367389 0.0535023 0.0356253 0.0521222 0.0535023 0.068442 0.0521222 0.0671078 0 0.0181261 0 0.0176558 0.0181261 0.0356253 0.0176558 0.034719 0 0.0176558 0 0.0172726 0.0176558 0.034719 0.0172726 0.0339763 0.0356253 0.0521222 0.034719 0.0509633 0.0521222 0.0671078 0.0509633 0.0659295 0.034719 0.0509633 0.0339763 0.0499848 0.0509633 0.0659295 0.0499848 0.0648899 0.0699482 0.082483 0.068442 0.0813363 0.082483 0.0932221 0.0813363 0.0924235 0.068442 0.0813363 0.0671078 0.0802497 0.0813363 0.0924235 0.0802497 0.0916238 0.0932221 0.102659 0.0924235 0.102116 0.102659 0.111058 0.102116 0.110692 0.0924235 0.102116 0.0916238 0.101549 0.102116 0.110692 0.101549 0.110294 0.0671078 0.0802497 0.0659295 0.0792334 0.0802497 0.0916238 0.0792334 0.0908364 0.0659295 0.0792334 0.0648899 0.078291 0.0792334 0.0908364 0.078291 0.0900715 0.0916238 0.101549 0.0908364 0.100968 0.101549 0.110294 0.100968 0.109872 0.0908364 0.100968 0.0900715 0.100381 0.100968 0.109872 0.100381 0.109431 0 0.0172726 0 0.0169586 0.0172726 0.0339763 0.0169586 0.0333634 0 0.0169586 0 0.0166996 0.0169586 0.0333634 0.0166996 0.0328538 0.0339763 0.0499848 0.0333634 0.0491541 0.0499848 0.0648899 0.0491541 0.0639725 0.0333634 0.0491541 0.0328538 0.0484453 0.0491541 0.0639725 0.0484453 0.0631622 0 0.0166996 0 0.0164844 0.0166996 0.0328538 0.0164844 0.0324269 0 0.0164844 0 0.0163041 0.0164844 0.0324269 0.0163041 0.0320666 0.0328538 0.0484453 0.0324269 0.0478373 0.0484453 0.0631622 0.0478373 0.0624452 0.0324269 0.0478373 0.0320666 0.0473128 0.0478373 0.0624452 0.0473128 0.0618094 0.0648899 0.078291 0.0639725 0.0774225 0.078291 0.0900715 0.0774225 0.0893359 0.0639725 0.0774225 0.0631622 0.0766251 0.0774225 0.0893359 0.0766251 0.0886342 0.0900715 0.100381 0.0893359 0.0997959 0.100381 0.109431 0.0997959 0.108978 0.0893359 0.0997959 0.0886342 0.0992188 0.0997959 0.108978 0.0992188 0.108518 0.0631622 0.0766251 0.0624452 0.0758948 0.0766251 0.0886342 0.0758948 0.0879688 0.0624452 0.0758948 0.0618094 0.075227 0.0758948 0.0879688 0.075227 0.0873407 0.0886342 0.0992188 0.0879688 0.0986539 0.0992188 0.108518 0.0986539 0.108056 0.0879688 0.0986539 0.0873407 0.0981049 0.0986539 0.108056 0.0981049 0.107594 0.111058 0.11856 0.110692 0.118314 0.11856 0.125253 0.118314 0.125084 0.110692 0.118314 0.110294 0.118034 0.118314 0.125084 0.118034 0.124884 0.125253 0.131201 0.125084 0.13108 0.131201 0.13646 0.13108 0.136366 0.125084 0.13108 0.124884 0.130931 0.13108 0.136366 0.130931 0.136247 0.110294 0.118034 0.109872 0.117726 0.118034 0.124884 0.117726 0.124656 0.109872 0.117726 0.109431 0.117396 0.117726 0.124656 0.117396 0.124404 0.124884 0.130931 0.124656 0.130756 0.130931 0.136247 0.130756 0.136104 0.124656 0.130756 0.124404 0.130557 0.130756 0.136104 0.130557 0.135939 0.13646 0.141084 0.136366 0.141 0.141084 0.145122 0.141 0.145039 0.136366 0.141 0.136247 0.140895 0.141 0.145039 0.140895 0.144936 0.145122 0.148628 0.145039 0.148536 0.148628 0.15165 0.148536 0.151545 0.145039 0.148536 0.144936 0.148428 0.148536 0.151545 0.148428 0.151426 0.136247 0.140895 0.136104 0.140769 0.140895 0.144936 0.140769 0.144815 0.136104 0.140769 0.135939 0.140623 0.140769 0.144815 0.140623 0.144677 0.144936 0.148428 0.144815 0.148304 0.148428 0.151426 0.148304 0.151294 0.144815 0.148304 0.144677 0.148166 0.148304 0.151294 0.148166 0.151149 0.109431 0.117396 0.108978 0.117046 0.117396 0.124404 0.117046 0.124131 0.108978 0.117046 0.108518 0.116683 0.117046 0.124131 0.116683 0.123841 0.124404 0.130557 0.124131 0.130338 0.130557 0.135939 0.130338 0.135755 0.124131 0.130338 0.123841 0.1301 0.130338 0.135755 0.1301 0.135552 0.108518 0.116683 0.108056 0.116308 0.116683 0.123841 0.116308 0.123536 0.108056 0.116308 0.107594 0.115926 0.116308 0.123536 0.115926 0.123219 0.123841 0.1301 0.123536 0.129846 0.1301 0.135552 0.129846 0.135334 0.123536 0.129846 0.123219 0.129578 0.129846 0.135334 0.129578 0.1351 0.135939 0.140623 0.135755 0.140459 0.140623 0.144677 0.140459 0.144523 0.135755 0.140459 0.135552 0.140279 0.140459 0.144523 0.140279 0.144354 0.144677 0.148166 0.144523 0.148013 0.148166 0.151149 0.148013 0.150992 0.144523 0.148013 0.144354 0.147847 0.148013 0.150992 0.147847 0.150823 0.135552 0.140279 0.135334 0.140083 0.140279 0.144354 0.140083 0.14417 0.135334 0.140083 0.1351 0.139872 0.140083 0.14417 0.139872 0.143973 0.144354 0.147847 0.14417 0.147668 0.147847 0.150823 0.147668 0.150642 0.14417 0.147668 0.143973 0.147476 0.147668 0.150642 0.147476 0.15045 0.151991 0.154816 0.151998 0.154782 0.154816 0.157254 0.154782 0.157181 0.151998 0.154782 0.151991 0.154737 0.154782 0.157181 0.154737 0.1571 0.157254 0.159341 0.157181 0.159232 0.159341 0.161117 0.159232 0.160976 0.157181 0.159232 0.1571 0.159118 0.159232 0.160976 0.159118 0.160831 0.151991 0.154737 0.151969 0.154682 0.154737 0.1571 0.154682 0.157012 0.151969 0.154682 0.151934 0.154616 0.154682 0.157012 0.154616 0.156915 0.1571 0.159118 0.157012 0.158999 0.159118 0.160831 0.158999 0.160682 0.157012 0.158999 0.156915 0.158873 0.158999 0.160682 0.158873 0.160529 0.161117 0.162618 0.160976 0.162447 0.162618 0.163877 0.162447 0.16368 0.160976 0.162447 0.160831 0.162274 0.162447 0.16368 0.162274 0.163482 0.163877 0.164927 0.16368 0.164707 0.164927 0.165797 0.164707 0.165557 0.16368 0.164707 0.163482 0.164486 0.164707 0.165557 0.164486 0.165317 0.160831 0.162274 0.160682 0.162098 0.162274 0.163482 0.162098 0.163282 0.160682 0.162098 0.160529 0.16192 0.162098 0.163282 0.16192 0.163081 0.163482 0.164486 0.163282 0.164266 0.164486 0.165317 0.164266 0.165077 0.163282 0.164266 0.163081 0.164044 0.164266 0.165077 0.164044 0.164837 0.151934 0.154616 0.151884 0.154538 0.154616 0.156915 0.154538 0.15681 0.151884 0.154538 0.15182 0.15445 0.154538 0.15681 0.15445 0.156696 0.156915 0.158873 0.15681 0.158741 0.158873 0.160529 0.158741 0.160371 0.15681 0.158741 0.156696 0.158602 0.158741 0.160371 0.158602 0.160208 0.15182 0.15445 0.151742 0.15435 0.15445 0.156696 0.15435 0.156573 0.151742 0.15435 0.15165 0.154239 0.15435 0.156573 0.154239 0.156442 0.156696 0.158602 0.156573 0.158456 0.158602 0.160208 0.158456 0.16004 0.156573 0.158456 0.156442 0.158303 0.158456 0.16004 0.158303 0.159866 0.160529 0.16192 0.160371 0.161738 0.16192 0.163081 0.161738 0.162877 0.160371 0.161738 0.160208 0.161553 0.161738 0.162877 0.161553 0.162671 0.163081 0.164044 0.162877 0.163821 0.164044 0.164837 0.163821 0.164596 0.162877 0.163821 0.162671 0.163596 0.163821 0.164596 0.163596 0.164355 0.160208 0.161553 0.16004 0.161364 0.161553 0.162671 0.161364 0.162462 0.16004 0.161364 0.159866 0.16117 0.161364 0.162462 0.16117 0.16225 0.162671 0.163596 0.162462 0.163369 0.163596 0.164355 0.163369 0.164112 0.162462 0.163369 0.16225 0.16314 0.163369 0.164112 0.16314 0.163867 0.165797 0.166513 0.165557 0.166255 0.166513 0.167098 0.166255 0.166826 0.165557 0.166255 0.165317 0.165999 0.166255 0.166826 0.165999 0.166556 0.167098 0.167575 0.166826 0.16729 0.167575 0.167959 0.16729 0.167665 0.166826 0.16729 0.166556 0.167007 0.16729 0.167665 0.167007 0.167371 0.165317 0.165999 0.165077 0.165743 0.165999 0.166556 0.165743 0.166285 0.165077 0.165743 0.164837 0.165487 0.165743 0.166285 0.165487 0.166016 0.166556 0.167007 0.166285 0.166725 0.167007 0.167371 0.166725 0.167079 0.166285 0.166725 0.166016 0.166443 0.166725 0.167079 0.166443 0.166787 0.167959 0.168268 0.167665 0.167965 0.168268 0.168515 0.167965 0.168204 0.167665 0.167965 0.167371 0.167663 0.167965 0.168204 0.167663 0.167895 0.168515 0.16871 0.168204 0.168394 0.16871 0.168864 0.168394 0.168544 0.168204 0.168394 0.167895 0.168079 0.168394 0.168544 0.168079 0.168224 0.167371 0.167663 0.167079 0.167362 0.167663 0.167895 0.167362 0.167587 0.167079 0.167362 0.166787 0.167062 0.167362 0.167587 0.167062 0.16728 0.167895 0.168079 0.167587 0.167766 0.168079 0.168224 0.167766 0.167906 0.167587 0.167766 0.16728 0.167453 0.167766 0.167906 0.167453 0.167588 0.164837 0.165487 0.164596 0.165231 0.165487 0.166016 0.165231 0.165746 0.164596 0.165231 0.164355 0.164974 0.165231 0.165746 0.164974 0.165476 0.166016 0.166443 0.165746 0.166162 0.166443 0.166787 0.166162 0.166496 0.165746 0.166162 0.165476 0.165881 0.166162 0.166496 0.165881 0.166205 0.164355 0.164974 0.164112 0.164717 0.164974 0.165476 0.164717 0.165206 0.164112 0.164717 0.163867 0.164458 0.164717 0.165206 0.164458 0.164935 0.165476 0.165881 0.165206 0.1656 0.165881 0.166205 0.1656 0.165914 0.165206 0.1656 0.164935 0.165318 0.1656 0.165914 0.165318 0.165624 0.166787 0.167062 0.166496 0.166762 0.167062 0.16728 0.166762 0.166974 0.166496 0.166762 0.166205 0.166463 0.166762 0.166974 0.166463 0.166668 0.16728 0.167453 0.166974 0.16714 0.167453 0.167588 0.16714 0.167271 0.166974 0.16714 0.166668 0.166828 0.16714 0.167271 0.166828 0.166954 0.166205 0.166463 0.165914 0.166164 0.166463 0.166668 0.166164 0.166362 0.165914 0.166164 0.165624 0.165866 0.166164 0.166362 0.165866 0.166056 0.166668 0.166828 0.166362 0.166517 0.166828 0.166954 0.166517 0.166638 0.166362 0.166517 0.166056 0.166206 0.166517 0.166638 0.166206 0.166322 0.15165 0.154239 0.151545 0.154117 0.154239 0.156442 0.154117 0.156301 0.151545 0.154117 0.151426 0.153984 0.154117 0.156301 0.153984 0.156151 0.156442 0.158303 0.156301 0.158143 0.158303 0.159866 0.158143 0.159687 0.156301 0.158143 0.156151 0.157976 0.158143 0.159687 0.157976 0.159502 0.151426 0.153984 0.151294 0.153839 0.153984 0.156151 0.153839 0.155992 0.151294 0.153839 0.151149 0.153684 0.153839 0.155992 0.153684 0.155824 0.156151 0.157976 0.155992 0.157801 0.157976 0.159502 0.157801 0.15931 0.155992 0.157801 0.155824 0.157618 0.157801 0.15931 0.157618 0.159113 0.159866 0.16117 0.159687 0.160972 0.16117 0.16225 0.160972 0.162035 0.159687 0.160972 0.159502 0.160769 0.160972 0.162035 0.160769 0.161816 0.16225 0.16314 0.162035 0.162908 0.16314 0.163867 0.162908 0.16362 0.162035 0.162908 0.161816 0.162673 0.162908 0.16362 0.162673 0.163371 0.159502 0.160769 0.15931 0.160562 0.160769 0.161816 0.160562 0.161592 0.15931 0.160562 0.159113 0.160349 0.160562 0.161592 0.160349 0.161365 0.161816 0.162673 0.161592 0.162435 0.162673 0.163371 0.162435 0.16312 0.161592 0.162435 0.161365 0.162194 0.162435 0.16312 0.162194 0.162867 0.151149 0.153684 0.150992 0.153518 0.153684 0.155824 0.153518 0.155646 0.150992 0.153518 0.150823 0.153342 0.153518 0.155646 0.153342 0.15546 0.155824 0.157618 0.155646 0.157428 0.157618 0.159113 0.157428 0.158908 0.155646 0.157428 0.15546 0.15723 0.157428 0.158908 0.15723 0.158698 0.150823 0.153342 0.150642 0.153155 0.153342 0.15546 0.153155 0.155265 0.150642 0.153155 0.15045 0.152958 0.153155 0.155265 0.152958 0.155061 0.15546 0.15723 0.155265 0.157024 0.15723 0.158698 0.157024 0.15848 0.155265 0.157024 0.155061 0.15681 0.157024 0.15848 0.15681 0.158257 0.159113 0.160349 0.158908 0.160131 0.160349 0.161365 0.160131 0.161133 0.158908 0.160131 0.158698 0.159907 0.160131 0.161133 0.159907 0.160897 0.161365 0.162194 0.161133 0.16195 0.162194 0.162867 0.16195 0.16261 0.161133 0.16195 0.160897 0.161701 0.16195 0.16261 0.161701 0.16235 0.158698 0.159907 0.15848 0.159678 0.159907 0.160897 0.159678 0.160656 0.15848 0.159678 0.158257 0.159444 0.159678 0.160656 0.159444 0.160411 0.160897 0.161701 0.160656 0.161449 0.161701 0.16235 0.161449 0.162087 0.160656 0.161449 0.160411 0.161193 0.161449 0.162087 0.161193 0.161821 0.163867 0.164458 0.16362 0.164198 0.164458 0.164935 0.164198 0.164663 0.16362 0.164198 0.163371 0.163936 0.164198 0.164663 0.163936 0.164391 0.164935 0.165318 0.164663 0.165036 0.165318 0.165624 0.165036 0.165332 0.164663 0.165036 0.164391 0.164753 0.165036 0.165332 0.164753 0.165041 0.163371 0.163936 0.16312 0.163673 0.163936 0.164391 0.163673 0.164116 0.16312 0.163673 0.162867 0.163408 0.163673 0.164116 0.163408 0.16384 0.164391 0.164753 0.164116 0.164469 0.164753 0.165041 0.164469 0.164748 0.164116 0.164469 0.16384 0.164184 0.164469 0.164748 0.164184 0.164455 0.165624 0.165866 0.165332 0.165567 0.165866 0.166056 0.165567 0.165751 0.165332 0.165567 0.165041 0.165267 0.165567 0.165751 0.165267 0.165445 0.166056 0.166206 0.165751 0.165894 0.166206 0.166322 0.165894 0.166006 0.165751 0.165894 0.165445 0.165583 0.165894 0.166006 0.165583 0.16569 0.165041 0.165267 0.164748 0.164968 0.165267 0.165445 0.164968 0.165139 0.164748 0.164968 0.164455 0.164667 0.164968 0.165139 0.164667 0.164833 0.165445 0.165583 0.165139 0.165272 0.165583 0.16569 0.165272 0.165374 0.165139 0.165272 0.164833 0.16496 0.165272 0.165374 0.16496 0.165058 0.162867 0.163408 0.16261 0.16314 0.163408 0.16384 0.16314 0.163563 0.16261 0.16314 0.16235 0.16287 0.16314 0.163563 0.16287 0.163283 0.16384 0.164184 0.163563 0.163898 0.164184 0.164455 0.163898 0.164161 0.163563 0.163898 0.163283 0.16361 0.163898 0.164161 0.16361 0.163865 0.16235 0.16287 0.162087 0.162597 0.16287 0.163283 0.162597 0.163002 0.162087 0.162597 0.161821 0.162322 0.162597 0.163002 0.162322 0.162718 0.163283 0.16361 0.163002 0.16332 0.16361 0.163865 0.16332 0.163568 0.163002 0.16332 0.162718 0.163028 0.16332 0.163568 0.163028 0.16327 0.164455 0.164667 0.164161 0.164366 0.164667 0.164833 0.164366 0.164525 0.164161 0.164366 0.163865 0.164064 0.164366 0.164525 0.164064 0.164218 0.164833 0.16496 0.164525 0.164648 0.16496 0.165058 0.164648 0.164742 0.164525 0.164648 0.164218 0.164336 0.164648 0.164742 0.164336 0.164425 0.163865 0.164064 0.163568 0.163761 0.164064 0.164218 0.163761 0.163909 0.163568 0.163761 0.16327 0.163457 0.163761 0.163909 0.163457 0.1636 0.164218 0.164336 0.163909 0.164022 0.164336 0.164425 0.164022 0.164108 0.163909 0.164022 0.1636 0.163708 0.164022 0.164108 0.163708 0.16379 0 0.0163041 0 0.0161516 0.0163041 0.0320666 0.0161516 0.0317599 0 0.0161516 0 0.0160217 0.0161516 0.0317599 0.0160217 0.0314968 0.0320666 0.0473128 0.0317599 0.0468579 0.0473128 0.0618094 0.0468579 0.0612442 0.0317599 0.0468579 0.0314968 0.0464611 0.0468579 0.0612442 0.0464611 0.0607401 0 0.0160217 0 0.0159099 0.0160217 0.0314968 0.0159099 0.0312692 0 0.0159099 0 0.0158128 0.0159099 0.0312692 0.0158128 0.0310706 0.0314968 0.0464611 0.0312692 0.0461129 0.0464611 0.0607401 0.0461129 0.0602891 0.0312692 0.0461129 0.0310706 0.0458054 0.0461129 0.0602891 0.0458054 0.0598842 0.0618094 0.075227 0.0612442 0.0746165 0.075227 0.0873407 0.0746165 0.0867497 0.0612442 0.0746165 0.0607401 0.0740583 0.0746165 0.0867497 0.0740583 0.0861951 0.0873407 0.0981049 0.0867497 0.097574 0.0981049 0.107594 0.097574 0.107137 0.0867497 0.097574 0.0861951 0.097063 0.097574 0.107137 0.097063 0.106688 0.0607401 0.0740583 0.0602891 0.0735476 0.0740583 0.0861951 0.0735476 0.0856753 0.0602891 0.0735476 0.0598842 0.0730798 0.0735476 0.0856753 0.0730798 0.0851888 0.0861951 0.097063 0.0856753 0.0965729 0.097063 0.106688 0.0965729 0.106247 0.0856753 0.0965729 0.0851888 0.0961039 0.0965729 0.106247 0.0961039 0.105816 0 0.0158128 0 0.0157276 0.0158128 0.0310706 0.0157276 0.0308958 0 0.0157276 0 0.0156522 0.0157276 0.0308958 0.0156522 0.0307408 0.0310706 0.0458054 0.0308958 0.0455323 0.0458054 0.0598842 0.0455323 0.0595193 0.0308958 0.0455323 0.0307408 0.0452882 0.0455323 0.0595193 0.0452882 0.0591891 0 0.0156522 0 0.0155847 0.0156522 0.0307408 0.0155847 0.0306021 0 0.0155847 0 0.0155239 0.0155847 0.0