# vtk DataFile Version 3.0
#This file was generated by the deal.II library on 2022/1/6 at 22:49:31
ASCII
DATASET UNSTRUCTURED_GRID

POINTS 16384 double
0 0 0
0.1875 0 0
0 0.046875 0
0.1875 0.046875 0
0.1875 0 0
0.375 0 0
0.1875 0.046875 0
0.375 0.046875 0
0 0.046875 0
0.1875 0.046875 0
0 0.09375 0
0.1875 0.09375 0
0.1875 0.046875 0
0.375 0.046875 0
0.1875 0.09375 0
0.375 0.09375 0
0.375 0 0
0.5625 0 0
0.375 0.046875 0
0.5625 0.046875 0
0.5625 0 0
0.75 0 0
0.5625 0.046875 0
0.75 0.046875 0
0.375 0.046875 0
0.5625 0.046875 0
0.375 0.09375 0
0.5625 0.09375 0
0.5625 0.046875 0
0.75 0.046875 0
0.5625 0.09375 0
0.75 0.09375 0
0 0.09375 0
0.1875 0.09375 0
0 0.140625 0
0.1875 0.140625 0
0.1875 0.09375 0
0.375 0.09375 0
0.1875 0.140625 0
0.375 0.140625 0
0 0.140625 0
0.1875 0.140625 0
0 0.1875 0
0.1875 0.1875 0
0.1875 0.140625 0
0.375 0.140625 0
0.1875 0.1875 0
0.375 0.1875 0
0.375 0.09375 0
0.5625 0.09375 0
0.375 0.140625 0
0.5625 0.140625 0
0.5625 0.09375 0
0.75 0.09375 0
0.5625 0.140625 0
0.75 0.140625 0
0.375 0.140625 0
0.5625 0.140625 0
0.375 0.1875 0
0.5625 0.1875 0
0.5625 0.140625 0
0.75 0.140625 0
0.5625 0.1875 0
0.75 0.1875 0
0.75 0 0
0.9375 0 0
0.75 0.046875 0
0.9375 0.046875 0
0.9375 0 0
1.125 0 0
0.9375 0.046875 0
1.125 0.046875 0
0.75 0.046875 0
0.9375 0.046875 0
0.75 0.09375 0
0.9375 0.09375 0
0.9375 0.046875 0
1.125 0.046875 0
0.9375 0.09375 0
1.125 0.09375 0
1.125 0 0
1.3125 0 0
1.125 0.046875 0
1.3125 0.046875 0
1.3125 0 0
1.5 0 0
1.3125 0.046875 0
1.5 0.046875 0
1.125 0.046875 0
1.3125 0.046875 0
1.125 0.09375 0
1.3125 0.09375 0
1.3125 0.046875 0
1.5 0.046875 0
1.3125 0.09375 0
1.5 0.09375 0
0.75 0.09375 0
0.9375 0.09375 0
0.75 0.140625 0
0.9375 0.140625 0
0.9375 0.09375 0
1.125 0.09375 0
0.9375 0.140625 0
1.125 0.140625 0
0.75 0.140625 0
0.9375 0.140625 0
0.75 0.1875 0
0.9375 0.1875 0
0.9375 0.140625 0
1.125 0.140625 0
0.9375 0.1875 0
1.125 0.1875 0
1.125 0.09375 0
1.3125 0.09375 0
1.125 0.140625 0
1.3125 0.140625 0
1.3125 0.09375 0
1.5 0.09375 0
1.3125 0.140625 0
1.5 0.140625 0
1.125 0.140625 0
1.3125 0.140625 0
1.125 0.1875 0
1.3125 0.1875 0
1.3125 0.140625 0
1.5 0.140625 0
1.3125 0.1875 0
1.5 0.1875 0
0 0.1875 0
0.1875 0.1875 0
0 0.234375 0
0.1875 0.234375 0
0.1875 0.1875 0
0.375 0.1875 0
0.1875 0.234375 0
0.375 0.234375 0
0 0.234375 0
0.1875 0.234375 0
0 0.28125 0
0.1875 0.28125 0
0.1875 0.234375 0
0.375 0.234375 0
0.1875 0.28125 0
0.375 0.28125 0
0.375 0.1875 0
0.5625 0.1875 0
0.375 0.234375 0
0.5625 0.234375 0
0.5625 0.1875 0
0.75 0.1875 0
0.5625 0.234375 0
0.75 0.234375 0
0.375 0.234375 0
0.5625 0.234375 0
0.375 0.28125 0
0.5625 0.28125 0
0.5625 0.234375 0
0.75 0.234375 0
0.5625 0.28125 0
0.75 0.28125 0
0 0.28125 0
0.1875 0.28125 0
0 0.328125 0
0.1875 0.328125 0
0.1875 0.28125 0
0.375 0.28125 0
0.1875 0.328125 0
0.375 0.328125 0
0 0.328125 0
0.1875 0.328125 0
0 0.375 0
0.1875 0.375 0
0.1875 0.328125 0
0.375 0.328125 0
0.1875 0.375 0
0.375 0.375 0
0.375 0.28125 0
0.5625 0.28125 0
0.375 0.328125 0
0.5625 0.328125 0
0.5625 0.28125 0
0.75 0.28125 0
0.5625 0.328125 0
0.75 0.328125 0
0.375 0.328125 0
0.5625 0.328125 0
0.375 0.375 0
0.5625 0.375 0
0.5625 0.328125 0
0.75 0.328125 0
0.5625 0.375 0
0.75 0.375 0
0.75 0.1875 0
0.9375 0.1875 0
0.75 0.234375 0
0.9375 0.234375 0
0.9375 0.1875 0
1.125 0.1875 0
0.9375 0.234375 0
1.125 0.234375 0
0.75 0.234375 0
0.9375 0.234375 0
0.75 0.28125 0
0.9375 0.28125 0
0.9375 0.234375 0
1.125 0.234375 0
0.9375 0.28125 0
1.125 0.28125 0
1.125 0.1875 0
1.3125 0.1875 0
1.125 0.234375 0
1.3125 0.234375 0
1.3125 0.1875 0
1.5 0.1875 0
1.3125 0.234375 0
1.5 0.234375 0
1.125 0.234375 0
1.3125 0.234375 0
1.125 0.28125 0
1.3125 0.28125 0
1.3125 0.234375 0
1.5 0.234375 0
1.3125 0.28125 0
1.5 0.28125 0
0.75 0.28125 0
0.9375 0.28125 0
0.75 0.328125 0
0.9375 0.328125 0
0.9375 0.28125 0
1.125 0.28125 0
0.9375 0.328125 0
1.125 0.328125 0
0.75 0.328125 0
0.9375 0.328125 0
0.75 0.375 0
0.9375 0.375 0
0.9375 0.328125 0
1.125 0.328125 0
0.9375 0.375 0
1.125 0.375 0
1.125 0.28125 0
1.3125 0.28125 0
1.125 0.328125 0
1.3125 0.328125 0
1.3125 0.28125 0
1.5 0.28125 0
1.3125 0.328125 0
1.5 0.328125 0
1.125 0.328125 0
1.3125 0.328125 0
1.125 0.375 0
1.3125 0.375 0
1.3125 0.328125 0
1.5 0.328125 0
1.3125 0.375 0
1.5 0.375 0
1.5 0 0
1.6875 0 0
1.5 0.046875 0
1.6875 0.046875 0
1.6875 0 0
1.875 0 0
1.6875 0.046875 0
1.875 0.046875 0
1.5 0.046875 0
1.6875 0.046875 0
1.5 0.09375 0
1.6875 0.09375 0
1.6875 0.046875 0
1.875 0.046875 0
1.6875 0.09375 0
1.875 0.09375 0
1.875 0 0
2.0625 0 0
1.875 0.046875 0
2.0625 0.046875 0
2.0625 0 0
2.25 0 0
2.0625 0.046875 0
2.25 0.046875 0
1.875 0.046875 0
2.0625 0.046875 0
1.875 0.09375 0
2.0625 0.09375 0
2.0625 0.046875 0
2.25 0.046875 0
2.0625 0.09375 0
2.25 0.09375 0
1.5 0.09375 0
1.6875 0.09375 0
1.5 0.140625 0
1.6875 0.140625 0
1.6875 0.09375 0
1.875 0.09375 0
1.6875 0.140625 0
1.875 0.140625 0
1.5 0.140625 0
1.6875 0.140625 0
1.5 0.1875 0
1.6875 0.1875 0
1.6875 0.140625 0
1.875 0.140625 0
1.6875 0.1875 0
1.875 0.1875 0
1.875 0.09375 0
2.0625 0.09375 0
1.875 0.140625 0
2.0625 0.140625 0
2.0625 0.09375 0
2.25 0.09375 0
2.0625 0.140625 0
2.25 0.140625 0
1.875 0.140625 0
2.0625 0.140625 0
1.875 0.1875 0
2.0625 0.1875 0
2.0625 0.140625 0
2.25 0.140625 0
2.0625 0.1875 0
2.25 0.1875 0
2.25 0 0
2.4375 0 0
2.25 0.046875 0
2.4375 0.046875 0
2.4375 0 0
2.625 0 0
2.4375 0.046875 0
2.625 0.046875 0
2.25 0.046875 0
2.4375 0.046875 0
2.25 0.09375 0
2.4375 0.09375 0
2.4375 0.046875 0
2.625 0.046875 0
2.4375 0.09375 0
2.625 0.09375 0
2.625 0 0
2.8125 0 0
2.625 0.046875 0
2.8125 0.046875 0
2.8125 0 0
3 0 0
2.8125 0.046875 0
3 0.046875 0
2.625 0.046875 0
2.8125 0.046875 0
2.625 0.09375 0
2.8125 0.09375 0
2.8125 0.046875 0
3 0.046875 0
2.8125 0.09375 0
3 0.09375 0
2.25 0.09375 0
2.4375 0.09375 0
2.25 0.140625 0
2.4375 0.140625 0
2.4375 0.09375 0
2.625 0.09375 0
2.4375 0.140625 0
2.625 0.140625 0
2.25 0.140625 0
2.4375 0.140625 0
2.25 0.1875 0
2.4375 0.1875 0
2.4375 0.140625 0
2.625 0.140625 0
2.4375 0.1875 0
2.625 0.1875 0
2.625 0.09375 0
2.8125 0.09375 0
2.625 0.140625 0
2.8125 0.140625 0
2.8125 0.09375 0
3 0.09375 0
2.8125 0.140625 0
3 0.140625 0
2.625 0.140625 0
2.8125 0.140625 0
2.625 0.1875 0
2.8125 0.1875 0
2.8125 0.140625 0
3 0.140625 0
2.8125 0.1875 0
3 0.1875 0
1.5 0.1875 0
1.6875 0.1875 0
1.5 0.234375 0
1.6875 0.234375 0
1.6875 0.1875 0
1.875 0.1875 0
1.6875 0.234375 0
1.875 0.234375 0
1.5 0.234375 0
1.6875 0.234375 0
1.5 0.28125 0
1.6875 0.28125 0
1.6875 0.234375 0
1.875 0.234375 0
1.6875 0.28125 0
1.875 0.28125 0
1.875 0.1875 0
2.0625 0.1875 0
1.875 0.234375 0
2.0625 0.234375 0
2.0625 0.1875 0
2.25 0.1875 0
2.0625 0.234375 0
2.25 0.234375 0
1.875 0.234375 0
2.0625 0.234375 0
1.875 0.28125 0
2.0625 0.28125 0
2.0625 0.234375 0
2.25 0.234375 0
2.0625 0.28125 0
2.25 0.28125 0
1.5 0.28125 0
1.6875 0.28125 0
1.5 0.328125 0
1.6875 0.328125 0
1.6875 0.28125 0
1.875 0.28125 0
1.6875 0.328125 0
1.875 0.328125 0
1.5 0.328125 0
1.6875 0.328125 0
1.5 0.375 0
1.6875 0.375 0
1.6875 0.328125 0
1.875 0.328125 0
1.6875 0.375 0
1.875 0.375 0
1.875 0.28125 0
2.0625 0.28125 0
1.875 0.328125 0
2.0625 0.328125 0
2.0625 0.28125 0
2.25 0.28125 0
2.0625 0.328125 0
2.25 0.328125 0
1.875 0.328125 0
2.0625 0.328125 0
1.875 0.375 0
2.0625 0.375 0
2.0625 0.328125 0
2.25 0.328125 0
2.0625 0.375 0
2.25 0.375 0
2.25 0.1875 0
2.4375 0.1875 0
2.25 0.234375 0
2.4375 0.234375 0
2.4375 0.1875 0
2.625 0.1875 0
2.4375 0.234375 0
2.625 0.234375 0
2.25 0.234375 0
2.4375 0.234375 0
2.25 0.28125 0
2.4375 0.28125 0
2.4375 0.234375 0
2.625 0.234375 0
2.4375 0.28125 0
2.625 0.28125 0
2.625 0.1875 0
2.8125 0.1875 0
2.625 0.234375 0
2.8125 0.234375 0
2.8125 0.1875 0
3 0.1875 0
2.8125 0.234375 0
3 0.234375 0
2.625 0.234375 0
2.8125 0.234375 0
2.625 0.28125 0
2.8125 0.28125 0
2.8125 0.234375 0
3 0.234375 0
2.8125 0.28125 0
3 0.28125 0
2.25 0.28125 0
2.4375 0.28125 0
2.25 0.328125 0
2.4375 0.328125 0
2.4375 0.28125 0
2.625 0.28125 0
2.4375 0.328125 0
2.625 0.328125 0
2.25 0.328125 0
2.4375 0.328125 0
2.25 0.375 0
2.4375 0.375 0
2.4375 0.328125 0
2.625 0.328125 0
2.4375 0.375 0
2.625 0.375 0
2.625 0.28125 0
2.8125 0.28125 0
2.625 0.328125 0
2.8125 0.328125 0
2.8125 0.28125 0
3 0.28125 0
2.8125 0.328125 0
3 0.328125 0
2.625 0.328125 0
2.8125 0.328125 0
2.625 0.375 0
2.8125 0.375 0
2.8125 0.328125 0
3 0.328125 0
2.8125 0.375 0
3 0.375 0
0 0.375 0
0.1875 0.375 0
0 0.421875 0
0.1875 0.421875 0
0.1875 0.375 0
0.375 0.375 0
0.1875 0.421875 0
0.375 0.421875 0
0 0.421875 0
0.1875 0.421875 0
0 0.46875 0
0.1875 0.46875 0
0.1875 0.421875 0
0.375 0.421875 0
0.1875 0.46875 0
0.375 0.46875 0
0.375 0.375 0
0.5625 0.375 0
0.375 0.421875 0
0.5625 0.421875 0
0.5625 0.375 0
0.75 0.375 0
0.5625 0.421875 0
0.75 0.421875 0
0.375 0.421875 0
0.5625 0.421875 0
0.375 0.46875 0
0.5625 0.46875 0
0.5625 0.421875 0
0.75 0.421875 0
0.5625 0.46875 0
0.75 0.46875 0
0 0.46875 0
0.1875 0.46875 0
0 0.515625 0
0.1875 0.515625 0
0.1875 0.46875 0
0.375 0.46875 0
0.1875 0.515625 0
0.375 0.515625 0
0 0.515625 0
0.1875 0.515625 0
0 0.5625 0
0.1875 0.5625 0
0.1875 0.515625 0
0.375 0.515625 0
0.1875 0.5625 0
0.375 0.5625 0
0.375 0.46875 0
0.5625 0.46875 0
0.375 0.515625 0
0.5625 0.515625 0
0.5625 0.46875 0
0.75 0.46875 0
0.5625 0.515625 0
0.75 0.515625 0
0.375 0.515625 0
0.5625 0.515625 0
0.375 0.5625 0
0.5625 0.5625 0
0.5625 0.515625 0
0.75 0.515625 0
0.5625 0.5625 0
0.75 0.5625 0
0.75 0.375 0
0.9375 0.375 0
0.75 0.421875 0
0.9375 0.421875 0
0.9375 0.375 0
1.125 0.375 0
0.9375 0.421875 0
1.125 0.421875 0
0.75 0.421875 0
0.9375 0.421875 0
0.75 0.46875 0
0.9375 0.46875 0
0.9375 0.421875 0
1.125 0.421875 0
0.9375 0.46875 0
1.125 0.46875 0
1.125 0.375 0
1.3125 0.375 0
1.125 0.421875 0
1.3125 0.421875 0
1.3125 0.375 0
1.5 0.375 0
1.3125 0.421875 0
1.5 0.421875 0
1.125 0.421875 0
1.3125 0.421875 0
1.125 0.46875 0
1.3125 0.46875 0
1.3125 0.421875 0
1.5 0.421875 0
1.3125 0.46875 0
1.5 0.46875 0
0.75 0.46875 0
0.9375 0.46875 0
0.75 0.515625 0
0.9375 0.515625 0
0.9375 0.46875 0
1.125 0.46875 0
0.9375 0.515625 0
1.125 0.515625 0
0.75 0.515625 0
0.9375 0.515625 0
[...]
POINT_DATA 16384
SCALARS x_displacement double 1
LOOKUP_TABLE default
0 0.0329797 0 0.0295649 0.0329797 0.0580399 0.0295649 0.056512 0 0.0295649 0 0.0272181 0.0295649 0.056512 0.0272181 0.0538684 0.0580399 0.0734024 0.056512 0.0722405 0.0734024 0.0788871 0.0722405 0.0782081 0.056512 0.0722405 0.0538684 0.070375 0.0722405 0.0782081 0.070375 0.0770749 0 0.0272181 0 0.0252816 0.0272181 0.0538684 0.0252816 0.0504109 0 0.0252816 0 0.0236506 0.0252816 0.0504109 0.0236506 0.0468794 0.0538684 0.070375 0.0504109 0.0677068 0.070375 0.0770749 0.0677068 0.0755262 0.0504109 0.0677068 0.0468794 0.0640892 0.0677068 0.0755262 0.0640892 0.0736947 0.0788871 0.083854 0.0782081 0.0836211 0.083854 0.0892821 0.0836211 0.0893706 0.0782081 0.0836211 0.0770749 0.0831413 0.0836211 0.0893706 0.0831413 0.0892704 0.0892821 0.0947223 0.0893706 0.0949332 0.0947223 0.0998231 0.0949332 0.100077 0.0893706 0.0949332 0.0892704 0.0950121 0.0949332 0.100077 0.0950121 0.100232 0.0770749 0.0831413 0.0755262 0.0824555 0.0831413 0.0892704 0.0824555 0.08901 0.0755262 0.0824555 0.0736947 0.0816112 0.0824555 0.08901 0.0816112 0.0886116 0.0892704 0.0950121 0.08901 0.0949691 0.0950121 0.100232 0.0949691 0.100295 0.08901 0.0949691 0.0886116 0.0948183 0.0949691 0.100295 0.0948183 0.100274 0 0.0236506 0 0.0222675 0.0236506 0.0468794 0.0222675 0.0435671 0 0.0222675 0 0.0210493 0.0222675 0.0435671 0.0210493 0.0409432 0.0468794 0.0640892 0.0435671 0.0604035 0.0640892 0.0736947 0.0604035 0.0718165 0.0435671 0.0604035 0.0409432 0.0574554 0.0604035 0.0718165 0.0574554 0.0699285 0 0.0210493 0 0.0200223 0.0210493 0.0409432 0.0200223 0.0388636 0 0.0200223 0 0.0191766 0.0200223 0.0388636 0.0191766 0.0372076 0.0409432 0.0574554 0.0388636 0.0551018 0.0574554 0.0699285 0.0551018 0.0681584 0.0388636 0.0551018 0.0372076 0.0531816 0.0551018 0.0681584 0.0531816 0.0665557 0.0736947 0.0816112 0.0718165 0.0806317 0.0816112 0.0886116 0.0806317 0.0881032 0.0718165 0.0806317 0.0699285 0.0795748 0.0806317 0.0881032 0.0795748 0.0875066 0.0886116 0.0948183 0.0881032 0.0945732 0.0948183 0.100274 0.0945732 0.100175 0.0881032 0.0945732 0.0875066 0.0942482 0.0945732 0.100175 0.0942482 0.100008 0.0699285 0.0795748 0.0681584 0.0784743 0.0795748 0.0875066 0.0784743 0.0868464 0.0681584 0.0784743 0.0665557 0.0773721 0.0784743 0.0868464 0.0773721 0.0861422 0.0875066 0.0942482 0.0868464 0.0938568 0.0942482 0.100008 0.0938568 0.0997812 0.0868464 0.0938568 0.0861422 0.0934126 0.0938568 0.0997812 0.0934126 0.0995032 0.0998231 0.104447 0.100077 0.104699 0.104447 0.108547 0.104699 0.10877 0.100077 0.104699 0.100232 0.104876 0.104699 0.10877 0.104876 0.108935 0.108547 0.112123 0.10877 0.112299 0.112123 0.115198 0.112299 0.115319 0.10877 0.112299 0.108935 0.112432 0.112299 0.115319 0.112432 0.115409 0.100232 0.104876 0.100295 0.104981 0.104876 0.108935 0.104981 0.109044 0.100295 0.104981 0.100274 0.10502 0.104981 0.109044 0.10502 0.109102 0.108935 0.112432 0.109044 0.112523 0.112432 0.115409 0.112523 0.115467 0.109044 0.112523 0.109102 0.112573 0.112523 0.115467 0.112573 0.115493 0.115198 0.11781 0.115319 0.117873 0.11781 0.120004 0.117873 0.120009 0.115319 0.117873 0.115409 0.117913 0.117873 0.120009 0.117913 0.119999 0.120004 0.121828 0.120009 0.121778 0.121828 0.123328 0.121778 0.123228 0.120009 0.121778 0.119999 0.121718 0.121778 0.123228 0.121718 0.123122 0.115409 0.117913 0.115467 0.11793 0.117913 0.119999 0.11793 0.119972 0.115467 0.11793 0.115493 0.117925 0.11793 0.119972 0.117925 0.119929 0.119999 0.121718 0.119972 0.121648 0.121718 0.123122 0.121648 0.12301 0.119972 0.121648 0.119929 0.121566 0.121648 0.12301 0.121566 0.122891 0.100274 0.10502 0.100175 0.104996 0.10502 0.109102 0.104996 0.10911 0.100175 0.104996 0.100008 0.104917 0.104996 0.10911 0.104917 0.109072 0.109102 0.112573 0.10911 0.112585 0.112573 0.115493 0.112585 0.11549 0.10911 0.112585 0.109072 0.112559 0.112585 0.11549 0.112559 0.115459 0.100008 0.104917 0.0997812 0.104786 0.104917 0.109072 0.104786 0.108992 0.0997812 0.104786 0.0995032 0.104609 0.104786 0.108992 0.104609 0.108873 0.109072 0.112559 0.108992 0.1125 0.112559 0.115459 0.1125 0.1154 0.108992 0.1125 0.108873 0.112408 0.1125 0.1154 0.112408 0.115315 0.115493 0.117925 0.11549 0.117897 0.117925 0.119929 0.117897 0.11987 0.11549 0.117897 0.115459 0.117846 0.117897 0.11987 0.117846 0.119794 0.119929 0.121566 0.11987 0.121473 0.121566 0.122891 0.121473 0.122764 0.11987 0.121473 0.119794 0.121368 0.121473 0.122764 0.121368 0.122629 0.115459 0.117846 0.1154 0.117775 0.117846 0.119794 0.117775 0.119702 0.1154 0.117775 0.115315 0.117683 0.117775 0.119702 0.117683 0.119595 0.119794 0.121368 0.119702 0.121252 0.121368 0.122629 0.121252 0.122486 0.119702 0.121252 0.119595 0.121123 0.121252 0.122486 0.121123 0.122334 0 0.0191766 0 0.0184884 0.0191766 0.0372076 0.0184884 0.03588 0 0.0184884 0 0.0179308 0.0184884 0.03588 0.0179308 0.0348086 0.0372076 0.0531816 0.03588 0.051595 0.0531816 0.0665557 0.051595 0.0651255 0.03588 0.051595 0.0348086 0.0502729 0.051595 0.0651255 0.0502729 0.0638576 0 0.0179308 0 0.0174787 0.0179308 0.0348086 0.0174787 0.0339377 0 0.0174787 0 0.0171108 0.0174787 0.0339377 0.0171108 0.033225 0.0348086 0.0502729 0.0339377 0.0491636 0.0502729 0.0638576 0.0491636 0.0627369 0.0339377 0.0491636 0.033225 0.0482275 0.0491636 0.0627369 0.0482275 0.0617475 0.0665557 0.0773721 0.0651255 0.0763011 0.0773721 0.0861422 0.0763011 0.0854128 0.0651255 0.0763011 0.0638576 0.0752817 0.0763011 0.0854128 0.0752817 0.0846754 0.0861422 0.0934126 0.0854128 0.092928 0.0934126 0.0995032 0.092928 0.0991821 0.0854128 0.092928 0.0846754 0.0924142 0.092928 0.0991821 0.0924142 0.0988257 0.0638576 0.0752817 0.0627369 0.0743247 0.0752817 0.0846754 0.0743247 0.0839439 0.0627369 0.0743247 0.0617475 0.0734348 0.0743247 0.0839439 0.0734348 0.083229 0.0846754 0.0924142 0.0839439 0.0918814 0.0924142 0.0988257 0.0918814 0.0984413 0.0839439 0.0918814 0.083229 0.0913385 0.0918814 0.0984413 0.0913385 0.0980357 0 0.0171108 0 0.0168098 0.0171108 0.033225 0.0168098 0.0326374 0 0.0168098 0 0.0165618 0.0168098 0.0326374 0.0165618 0.0321493 0.033225 0.0482275 0.0326374 0.0474331 0.0482275 0.0617475 0.0474331 0.0608736 0.0326374 0.0474331 0.0321493 0.0467552 0.0474331 0.0608736 0.0467552 0.0601009 0 0.0165618 0 0.0163559 0.0165618 0.0321493 0.0163559 0.0317407 0 0.0163559 0 0.0161836 0.0163559 0.0317407 0.0161836 0.0313958 0.0321493 0.0467552 0.0317407 0.0461737 0.0467552 0.0601009 0.0461737 0.0594165 0.0317407 0.0461737 0.0313958 0.0456718 0.0461737 0.0594165 0.0456718 0.0588089 0.0617475 0.0734348 0.0608736 0.0726125 0.0734348 0.083229 0.0726125 0.082538 0.0608736 0.0726125 0.0601009 0.0718557 0.0726125 0.082538 0.0718557 0.081876 0.083229 0.0913385 0.082538 0.0907933 0.0913385 0.0980357 0.0907933 0.0976149 0.082538 0.0907933 0.081876 0.0902518 0.0907933 0.0976149 0.0902518 0.0971842 0.0601009 0.0718557 0.0594165 0.071161 0.0718557 0.081876 0.071161 0.0812459 0.0594165 0.071161 0.0588089 0.0705242 0.071161 0.0812459 0.0705242 0.080649 0.081876 0.0902518 0.0812459 0.089719 0.0902518 0.0971842 0.089719 0.0967483 0.0812459 0.089719 0.080649 0.0891986 0.089719 0.0967483 0.0891986 0.0963111 0.0995032 0.104609 0.0991821 0.104393 0.104609 0.108873 0.104393 0.108719 0.0991821 0.104393 0.0988257 0.104141 0.104393 0.108719 0.104141 0.108533 0.108873 0.112408 0.108719 0.112286 0.112408 0.115315 0.112286 0.115205 0.108719 0.112286 0.108533 0.112137 0.112286 0.115205 0.112137 0.115073 0.0988257 0.104141 0.0984413 0.10386 0.104141 0.108533 0.10386 0.108319 0.0984413 0.10386 0.0980357 0.103554 0.10386 0.108319 0.103554 0.10808 0.108533 0.112137 0.108319 0.111963 0.112137 0.115073 0.111963 0.114919 0.108319 0.111963 0.10808 0.111767 0.111963 0.114919 0.111767 0.114745 0.115315 0.117683 0.115205 0.117572 0.117683 0.119595 0.117572 0.119472 0.115205 0.117572 0.115073 0.117441 0.117572 0.119472 0.117441 0.119334 0.119595 0.121123 0.119472 0.120983 0.121123 0.122334 0.120983 0.122174 0.119472 0.120983 0.119334 0.120831 0.120983 0.122174 0.120831 0.122004 0.115073 0.117441 0.114919 0.117293 0.117441 0.119334 0.117293 0.119181 0.114919 0.117293 0.114745 0.117128 0.117293 0.119181 0.117128 0.119015 0.119334 0.120831 0.119181 0.120668 0.120831 0.122004 0.120668 0.121826 0.119181 0.120668 0.119015 0.120494 0.120668 0.121826 0.120494 0.12164 0.0980357 0.103554 0.0976149 0.103227 0.103554 0.10808 0.103227 0.10782 0.0976149 0.103227 0.0971842 0.102885 0.103227 0.10782 0.102885 0.107541 0.10808 0.111767 0.10782 0.11155 0.111767 0.114745 0.11155 0.114553 0.10782 0.11155 0.107541 0.111315 0.11155 0.114553 0.111315 0.114344 0.0971842 0.102885 0.0967483 0.10253 0.102885 0.107541 0.10253 0.107248 0.0967483 0.10253 0.0963111 0.102166 0.10253 0.107248 0.102166 0.106941 0.107541 0.111315 0.107248 0.111064 0.111315 0.114344 0.111064 0.11412 0.107248 0.111064 0.106941 0.110799 0.111064 0.11412 0.110799 0.113882 0.114745 0.117128 0.114553 0.116947 0.117128 0.119015 0.116947 0.118835 0.114553 0.116947 0.114344 0.116751 0.116947 0.118835 0.116751 0.118643 0.119015 0.120494 0.118835 0.120308 0.120494 0.12164 0.120308 0.121444 0.118835 0.120308 0.118643 0.120112 0.120308 0.121444 0.120112 0.12124 0.114344 0.116751 0.11412 0.116542 0.116751 0.118643 0.116542 0.118439 0.11412 0.116542 0.113882 0.11632 0.116542 0.118439 0.11632 0.118223 0.118643 0.120112 0.118439 0.119906 0.120112 0.12124 0.119906 0.121027 0.118439 0.119906 0.118223 0.11969 0.119906 0.121027 0.11969 0.120805 0.123328 0.124552 0.123228 0.124407 0.124552 0.12554 0.124407 0.125356 0.123228 0.124407 0.123122 0.124259 0.124407 0.125356 0.124259 0.125172 0.12554 0.126332 0.125356 0.126115 0.126332 0.126961 0.126115 0.126716 0.125356 0.126115 0.125172 0.125899 0.126115 0.126716 0.125899 0.126474 0.123122 0.124259 0.12301 0.124109 0.124259 0.125172 0.124109 0.124987 0.12301 0.124109 0.122891 0.123954 0.124109 0.124987 0.123954 0.1248 0.125172 0.125899 0.124987 0.125684 0.125899 0.126474 0.125684 0.126233 0.124987 0.125684 0.1248 0.125469 0.125684 0.126233 0.125469 0.125994 0.126961 0.127456 0.126716 0.127189 0.127456 0.127843 0.127189 0.127558 0.126716 0.127189 0.126474 0.126925 0.127189 0.127558 0.126925 0.127276 0.127843 0.128143 0.127558 0.127844 0.128143 0.128374 0.127844 0.128064 0.127558 0.127844 0.127276 0.127548 0.127844 0.128064 0.127548 0.127756 0.126474 0.126925 0.126233 0.126663 0.126925 0.127276 0.126663 0.126996 0.126233 0.126663 0.125994 0.126402 0.126663 0.126996 0.126402 0.126719 0.127276 0.127548 0.126996 0.127254 0.127548 0.127756 0.127254 0.127451 0.126996 0.127254 0.126719 0.126962 0.127254 0.127451 0.126962 0.127149 0.122891 0.123954 0.122764 0.123795 0.123954 0.1248 0.123795 0.124611 0.122764 0.123795 0.122629 0.12363 0.123795 0.124611 0.12363 0.124419 0.1248 0.125469 0.124611 0.125253 0.125469 0.125994 0.125253 0.125755 0.124611 0.125253 0.124419 0.125036 0.125253 0.125755 0.125036 0.125516 0.122629 0.12363 0.122486 0.123461 0.12363 0.124419 0.123461 0.124224 0.122486 0.123461 0.122334 0.123285 0.123461 0.124224 0.123285 0.124025 0.124419 0.125036 0.124224 0.124818 0.125036 0.125516 0.124818 0.125276 0.124224 0.124818 0.124025 0.124597 0.124818 0.125276 0.124597 0.125035 0.125994 0.126402 0.125755 0.126143 0.126402 0.126719 0.126143 0.126443 0.125755 0.126143 0.125516 0.125885 0.126143 0.126443 0.125885 0.126169 0.126719 0.126962 0.126443 0.126673 0.126962 0.127149 0.126673 0.126848 0.126443 0.126673 0.126169 0.126385 0.126673 0.126848 0.126385 0.126549 0.125516 0.125885 0.125276 0.125627 0.125885 0.126169 0.125627 0.125895 0.125276 0.125627 0.125035 0.125369 0.125627 0.125895 0.125369 0.125621 0.126169 0.126385 0.125895 0.126098 0.126385 0.126549 0.126098 0.126251 0.125895 0.126098 0.125621 0.125811 0.126098 0.126251 0.125811 0.125953 0.128374 0.12855 0.128064 0.128231 0.12855 0.128683 0.128231 0.128358 0.128064 0.128231 0.127756 0.127915 0.128231 0.128358 0.127915 0.128036 0.128683 0.128782 0.128358 0.128453 0.128782 0.128856 0.128453 0.128524 0.128358 0.128453 0.128036 0.128126 0.128453 0.128524 0.128126 0.128194 0.127756 0.127915 0.127451 0.127602 0.127915 0.128036 0.127602 0.127716 0.127451 0.127602 0.127149 0.12729 0.127602 0.127716 0.12729 0.127397 0.128036 0.128126 0.127716 0.127801 0.128126 0.128194 0.127801 0.127865 0.127716 0.127801 0.127397 0.127478 0.127801 0.127865 0.127478 0.127538 0.128856 0.12891 0.128524 0.128576 0.12891 0.128949 0.128576 0.128614 0.128524 0.128576 0.128194 0.128244 0.128576 0.128614 0.128244 0.12828 0.128949 0.128977 0.128614 0.128641 0.128977 0.128997 0.128641 0.12866 0.128614 0.128641 0.12828 0.128306 0.128641 0.12866 0.128306 0.128325 0.128194 0.128244 0.127865 0.127912 0.128244 0.12828 0.127912 0.127947 0.127865 0.127912 0.127538 0.127582 0.127912 0.127947 0.127582 0.127615 0.12828 0.128306 0.127947 0.127972 0.128306 0.128325 0.127972 0.12799 0.127947 0.127972 0.127615 0.127638 0.127972 0.12799 0.127638 0.127655 0.127149 0.12729 0.126848 0.126981 0.12729 0.127397 0.126981 0.127081 0.126848 0.126981 0.126549 0.126672 0.126981 0.127081 0.126672 0.126765 0.127397 0.127478 0.127081 0.127156 0.127478 0.127538 0.127156 0.127212 0.127081 0.127156 0.126765 0.126835 0.127156 0.127212 0.126835 0.126887 0.126549 0.126672 0.126251 0.126365 0.126672 0.126765 0.126365 0.126451 0.126251 0.126365 0.125953 0.126059 0.126365 0.126451 0.126059 0.126138 0.126765 0.126835 0.126451 0.126515 0.126835 0.126887 0.126515 0.126562 0.126451 0.126515 0.126138 0.126196 0.126515 0.126562 0.126196 0.126239 0.127538 0.127582 0.127212 0.127253 0.127582 0.127615 0.127253 0.127283 0.127212 0.127253 0.126887 0.126925 0.127253 0.127283 0.126925 0.126953 0.127615 0.127638 0.127283 0.127305 0.127638 0.127655 0.127305 0.127321 0.127283 0.127305 0.126953 0.126973 0.127305 0.127321 0.126973 0.126988 0.126887 0.126925 0.126562 0.126597 0.126925 0.126953 0.126597 0.126623 0.126562 0.126597 0.126239 0.126271 0.126597 0.126623 0.126271 0.126294 0.126953 0.126973 0.126623 0.126641 0.126973 0.126988 0.126641 0.126655 0.126623 0.126641 0.126294 0.12631 0.126641 0.126655 0.12631 0.126322 0.122334 0.123285 0.122174 0.123103 0.123285 0.124025 0.123103 0.123822 0.122174 0.123103 0.122004 0.122915 0.123103 0.123822 0.122915 0.123614 0.124025 0.124597 0.123822 0.124373 0.124597 0.125035 0.124373 0.124793 0.123822 0.124373 0.123614 0.124147 0.124373 0.124793 0.124147 0.124549 0.122004 0.122915 0.121826 0.12272 0.122915 0.123614 0.12272 0.123401 0.121826 0.12272 0.12164 0.122518 0.12272 0.123401 0.122518 0.123184 0.123614 0.124147 0.123401 0.123917 0.124147 0.124549 0.123917 0.124302 0.123401 0.123917 0.123184 0.123683 0.123917 0.124302 0.123683 0.124054 0.125035 0.125369 0.124793 0.12511 0.125369 0.125621 0.12511 0.125348 0.124793 0.12511 0.124549 0.12485 0.12511 0.125348 0.12485 0.125074 0.125621 0.125811 0.125348 0.125525 0.125811 0.125953 0.125525 0.125657 0.125348 0.125525 0.125074 0.125239 0.125525 0.125657 0.125239 0.125361 0.124549 0.12485 0.124302 0.124589 0.12485 0.125074 0.124589 0.124799 0.124302 0.124589 0.124054 0.124326 0.124589 0.124799 0.124326 0.124523 0.125074 0.125239 0.124799 0.124953 0.125239 0.125361 0.124953 0.125064 0.124799 0.124953 0.124523 0.124666 0.124953 0.125064 0.124666 0.124768 0.12164 0.122518 0.121444 0.122309 0.122518 0.123184 0.122309 0.122961 0.121444 0.122309 0.12124 0.122094 0.122309 0.122961 0.122094 0.122732 0.123184 0.123683 0.122961 0.123445 0.123683 0.124054 0.123445 0.123802 0.122961 0.123445 0.122732 0.123204 0.123445 0.123802 0.123204 0.123547 0.12124 0.122094 0.121027 0.121871 0.122094 0.122732 0.121871 0.122498 0.121027 0.121871 0.120805 0.121642 0.121871 0.122498 0.121642 0.122259 0.122732 0.123204 0.122498 0.122958 0.123204 0.123547 0.122958 0.123289 0.122498 0.122958 0.122259 0.122707 0.122958 0.123289 0.122707 0.123027 0.124054 0.124326 0.123802 0.124061 0.124326 0.124523 0.124061 0.124246 0.123802 0.124061 0.123547 0.123793 0.124061 0.124246 0.123793 0.123968 0.124523 0.124666 0.124246 0.124378 0.124666 0.124768 0.124378 0.124471 0.124246 0.124378 0.123968 0.12409 0.124378 0.124471 0.12409 0.124173 0.123547 0.123793 0.123289 0.123524 0.123793 0.123968 0.123524 0.123687 0.123289 0.123524 0.123027 0.123251 0.123524 0.123687 0.123251 0.123405 0.123968 0.12409 0.123687 0.1238 0.12409 0.124173 0.1238 0.123875 0.123687 0.1238 0.123405 0.123508 0.1238 0.123875 0.123508 0.123575 0.125953 0.126059 0.125657 0.125754 0.126059 0.126138 0.125754 0.125826 0.125657 0.125754 0.125361 0.125449 0.125754 0.125826 0.125449 0.125514 0.126138 0.126196 0.125826 0.125878 0.126196 0.126239 0.125878 0.125917 0.125826 0.125878 0.125514 0.125561 0.125878 0.125917 0.125561 0.125595 0.125361 0.125449 0.125064 0.125145 0.125449 0.125514 0.125145 0.125202 0.125064 0.125145 0.124768 0.12484 0.125145 0.125202 0.12484 0.124891 0.125514 0.125561 0.125202 0.125244 0.125561 0.125595 0.125244 0.125273 0.125202 0.125244 0.124891 0.124927 0.125244 0.125273 0.124927 0.124952 0.126239 0.126271 0.125917 0.125945 0.126271 0.126294 0.125945 0.125965 0.125917 0.125945 0.125595 0.125619 0.125945 0.125965 0.125619 0.125637 0.126294 0.12631 0.125965 0.125979 0.12631 0.126322 0.125979 0.12599 0.125965 0.125979 0.125637 0.125649 0.125979 0.12599 0.125649 0.125658 0.125595 0.125619 0.125273 0.125294 0.125619 0.125637 0.125294 0.125309 0.125273 0.125294 0.124952 0.124969 0.125294 0.125309 0.124969 0.124981 0.125637 0.125649 0.125309 0.125319 0.125649 0.125658 0.125319 0.125326 0.125309 0.125319 0.124981 0.124989 0.125319 0.125326 0.124989 0.124995 0.124768 0.12484 0.124471 0.124535 0.12484 0.124891 0.124535 0.12458 0.124471 0.124535 0.124173 0.12423 0.124535 0.12458 0.12423 0.124268 0.124891 0.124927 0.12458 0.12461 0.124927 0.124952 0.12461 0.124631 0.12458 0.12461 0.124268 0.124293 0.12461 0.124631 0.124293 0.124309 0.124173 0.12423 0.123875 0.123925 0.12423 0.124268 0.123925 0.123956 0.123875 0.123925 0.123575 0.123618 0.123925 0.123956 0.123618 0.123644 0.124268 0.124293 0.123956 0.123976 0.124293 0.124309 0.123976 0.123988 0.123956 0.123976 0.123644 0.123659 0.123976 0.123988 0.123659 0.123667 0.124952 0.124969 0.124631 0.124644 0.124969 0.124981 0.124644 0.124654 0.124631 0.124644 0.124309 0.12432 0.124644 0.124654 0.12432 0.124326 0.124981 0.124989 0.124654 0.12466 0.124989 0.124995 0.12466 0.124664 0.124654 0.12466 0.124326 0.12433 0.12466 0.124664 0.12433 0.124333 0.124309 0.12432 0.123988 0.123995 0.12432 0.124326 0.123995 0.123999 0.123988 0.123995 0.123667 0.123671 0.123995 0.123999 0.123671 0.123672 0.124326 0.12433 0.123999 0.124001 0.12433 0.124333 0.124001 0.124002 0.123999 0.124001 0.123672 0.123672 0.124001 0.124002 0.123672 0.123671 0 0.0161836 0 0.016038 0.0161836 0.0313958 0.016038 0.0311023 0 0.016038 0 0.0159139 0.016038 0.0311023 0.0159139 0.0308504 0.0313958 0.0456718 0.0311023 0.0452362 0.0456718 0.0588089 0.0452362 0.0582679 0.0311023 0.0452362 0.0308504 0.0448558 0.0452362 0.0582679 0.0448558 0.0577847 0 0.0159139 0 0.015807 0.0159139 0.0308504 0.015807 0.0306323 0 0.015807 0 0.0157141 0.015807 0.0306323 0.0157141 0.0304418 0.0308504 0.0448558 0.0306323 0.0445216 0.0448558 0.0577847 0.0445216 0.0573516 0.0306323 0.0445216 0.0304418 0.044226 0.0445216 0.0573516 0.044226 0.056962 0.0588089 0.0705242 0.0582679 0.0699408 0.0705242 0.080649 0.0699408 0.0800856 0.0582679 0.0699408 0.0577847 0.0694063 0.0699408 0.0800856 0.0694063 0.0795552 0.080649 0.0891986 0.0800856 0.0886934 0.0891986 0.0963111 0.0886934 0.095876 0.0800856 0.0886934 0.0795552 0.0882053 0.0886934 0.095876 0.0882053 0.0954456 0.0577847 0.0694063 0.0573516 0.0689161 0.0694063 0.0795552 0.0689161 0.0790567 0.0573516 0.0689161 0.056962 0.068466 0.0689161 0.0790567 0.068466 0.0785887 0.0795552 0.0882053 0.0790567 0.0877353 0.0882053 0.0954456 0.0877353 0.0950222 0.0790567 0.0877353 0.0785887 0.0872842 0.0877353 0.0950222 0.0872842 0.0946072 0 0.0157141 0 0.0156325 0.0157141 0.0304418 0.0156325 0.0302739 0 0.0156325 0 0.0155602 0.0156325 0.0302739 0.0155602 0.0301246 0.0304418 0.044226 0.0302739 0.043963 0.044226 0.056962 0.043963 0.0566102 0.0302739 0.043963 0.0301246 0.0437274 0.043963 0.0566102 0.043