# vtk DataFile Version 3.0
#This file was generated by the deal.II library on 2022/1/6 at 22:54:05
ASCII
DATASET UNSTRUCTURED_GRID

POINTS 16384 double
0 0 0
0.1875 0 0
0 0.046875 0
0.1875 0.046875 0
0.1875 0 0
0.375 0 0
0.1875 0.046875 0
0.375 0.046875 0
0 0.046875 0
0.1875 0.046875 0
0 0.09375 0
0.1875 0.09375 0
0.1875 0.046875 0
0.375 0.046875 0
0.1875 0.09375 0
0.375 0.09375 0
0.375 0 0
0.5625 0 0
0.375 0.046875 0
0.5625 0.046875 0
0.5625 0 0
0.75 0 0
0.5625 0.046875 0
0.75 0.046875 0
0.375 0.046875 0
0.5625 0.046875 0
0.375 0.09375 0
0.5625 0.09375 0
0.5625 0.046875 0
0.75 0.046875 0
0.5625 0.09375 0
0.75 0.09375 0
0 0.09375 0
0.1875 0.09375 0
0 0.140625 0
0.1875 0.140625 0
0.1875 0.09375 0
0.375 0.09375 0
0.1875 0.140625 0
0.375 0.140625 0
0 0.140625 0
0.1875 0.140625 0
0 0.1875 0
0.1875 0.1875 0
0.1875 0.140625 0
0.375 0.140625 0
0.1875 0.1875 0
0.375 0.1875 0
0.375 0.09375 0
0.5625 0.09375 0
0.375 0.140625 0
0.5625 0.140625 0
0.5625 0.09375 0
0.75 0.09375 0
0.5625 0.140625 0
0.75 0.140625 0
0.375 0.140625 0
0.5625 0.140625 0
0.375 0.1875 0
0.5625 0.1875 0
0.5625 0.140625 0
0.75 0.140625 0
0.5625 0.1875 0
0.75 0.1875 0
0.75 0 0
0.9375 0 0
0.75 0.046875 0
0.9375 0.046875 0
0.9375 0 0
1.125 0 0
0.9375 0.046875 0
1.125 0.046875 0
0.75 0.046875 0
0.9375 0.046875 0
0.75 0.09375 0
0.9375 0.09375 0
0.9375 0.046875 0
1.125 0.046875 0
0.9375 0.09375 0
1.125 0.09375 0
1.125 0 0
1.3125 0 0
1.125 0.046875 0
1.3125 0.046875 0
1.3125 0 0
1.5 0 0
1.3125 0.046875 0
1.5 0.046875 0
1.125 0.046875 0
1.3125 0.046875 0
1.125 0.09375 0
1.3125 0.09375 0
1.3125 0.046875 0
1.5 0.046875 0
1.3125 0.09375 0
1.5 0.09375 0
0.75 0.09375 0
0.9375 0.09375 0
0.75 0.140625 0
0.9375 0.140625 0
0.9375 0.09375 0
1.125 0.09375 0
0.9375 0.140625 0
1.125 0.140625 0
0.75 0.140625 0
0.9375 0.140625 0
0.75 0.1875 0
0.9375 0.1875 0
0.9375 0.140625 0
1.125 0.140625 0
0.9375 0.1875 0
1.125 0.1875 0
1.125 0.09375 0
1.3125 0.09375 0
1.125 0.140625 0
1.3125 0.140625 0
1.3125 0.09375 0
1.5 0.09375 0
1.3125 0.140625 0
1.5 0.140625 0
1.125 0.140625 0
1.3125 0.140625 0
1.125 0.1875 0
1.3125 0.1875 0
1.3125 0.140625 0
1.5 0.140625 0
1.3125 0.1875 0
1.5 0.1875 0
0 0.1875 0
0.1875 0.1875 0
0 0.234375 0
0.1875 0.234375 0
0.1875 0.1875 0
0.375 0.1875 0
0.1875 0.234375 0
0.375 0.234375 0
0 0.234375 0
0.1875 0.234375 0
0 0.28125 0
0.1875 0.28125 0
0.1875 0.234375 0
0.375 0.234375 0
0.1875 0.28125 0
0.375 0.28125 0
0.375 0.1875 0
0.5625 0.1875 0
0.375 0.234375 0
0.5625 0.234375 0
0.5625 0.1875 0
0.75 0.1875 0
0.5625 0.234375 0
0.75 0.234375 0
0.375 0.234375 0
0.5625 0.234375 0
0.375 0.28125 0
0.5625 0.28125 0
0.5625 0.234375 0
0.75 0.234375 0
0.5625 0.28125 0
0.75 0.28125 0
0 0.28125 0
0.1875 0.28125 0
0 0.328125 0
0.1875 0.328125 0
0.1875 0.28125 0
0.375 0.28125 0
0.1875 0.328125 0
0.375 0.328125 0
0 0.328125 0
0.1875 0.328125 0
0 0.375 0
0.1875 0.375 0
0.1875 0.328125 0
0.375 0.328125 0
0.1875 0.375 0
0.375 0.375 0
0.375 0.28125 0
0.5625 0.28125 0
0.375 0.328125 0
0.5625 0.328125 0
0.5625 0.28125 0
0.75 0.28125 0
0.5625 0.328125 0
0.75 0.328125 0
0.375 0.328125 0
0.5625 0.328125 0
0.375 0.375 0
0.5625 0.375 0
0.5625 0.328125 0
0.75 0.328125 0
0.5625 0.375 0
0.75 0.375 0
0.75 0.1875 0
0.9375 0.1875 0
0.75 0.234375 0
0.9375 0.234375 0
0.9375 0.1875 0
1.125 0.1875 0
0.9375 0.234375 0
1.125 0.234375 0
0.75 0.234375 0
0.9375 0.234375 0
0.75 0.28125 0
0.9375 0.28125 0
0.9375 0.234375 0
1.125 0.234375 0
0.9375 0.28125 0
1.125 0.28125 0
1.125 0.1875 0
1.3125 0.1875 0
1.125 0.234375 0
1.3125 0.234375 0
1.3125 0.1875 0
1.5 0.1875 0
1.3125 0.234375 0
1.5 0.234375 0
1.125 0.234375 0
1.3125 0.234375 0
1.125 0.28125 0
1.3125 0.28125 0
1.3125 0.234375 0
1.5 0.234375 0
1.3125 0.28125 0
1.5 0.28125 0
0.75 0.28125 0
0.9375 0.28125 0
0.75 0.328125 0
0.9375 0.328125 0
0.9375 0.28125 0
1.125 0.28125 0
0.9375 0.328125 0
1.125 0.328125 0
0.75 0.328125 0
0.9375 0.328125 0
0.75 0.375 0
0.9375 0.375 0
0.9375 0.328125 0
1.125 0.328125 0
0.9375 0.375 0
1.125 0.375 0
1.125 0.28125 0
1.3125 0.28125 0
1.125 0.328125 0
1.3125 0.328125 0
1.3125 0.28125 0
1.5 0.28125 0
1.3125 0.328125 0
1.5 0.328125 0
1.125 0.328125 0
1.3125 0.328125 0
1.125 0.375 0
1.3125 0.375 0
1.3125 0.328125 0
1.5 0.328125 0
1.3125 0.375 0
1.5 0.375 0
1.5 0 0
1.6875 0 0
1.5 0.046875 0
1.6875 0.046875 0
1.6875 0 0
1.875 0 0
1.6875 0.046875 0
1.875 0.046875 0
1.5 0.046875 0
1.6875 0.046875 0
1.5 0.09375 0
1.6875 0.09375 0
1.6875 0.046875 0
1.875 0.046875 0
1.6875 0.09375 0
1.875 0.09375 0
1.875 0 0
2.0625 0 0
1.875 0.046875 0
2.0625 0.046875 0
2.0625 0 0
2.25 0 0
2.0625 0.046875 0
2.25 0.046875 0
1.875 0.046875 0
2.0625 0.046875 0
1.875 0.09375 0
2.0625 0.09375 0
2.0625 0.046875 0
2.25 0.046875 0
2.0625 0.09375 0
2.25 0.09375 0
1.5 0.09375 0
1.6875 0.09375 0
1.5 0.140625 0
1.6875 0.140625 0
1.6875 0.09375 0
1.875 0.09375 0
1.6875 0.140625 0
1.875 0.140625 0
1.5 0.140625 0
1.6875 0.140625 0
1.5 0.1875 0
1.6875 0.1875 0
1.6875 0.140625 0
1.875 0.140625 0
1.6875 0.1875 0
1.875 0.1875 0
1.875 0.09375 0
2.0625 0.09375 0
1.875 0.140625 0
2.0625 0.140625 0
2.0625 0.09375 0
2.25 0.09375 0
2.0625 0.140625 0
2.25 0.140625 0
1.875 0.140625 0
2.0625 0.140625 0
1.875 0.1875 0
2.0625 0.1875 0
2.0625 0.140625 0
2.25 0.140625 0
2.0625 0.1875 0
2.25 0.1875 0
2.25 0 0
2.4375 0 0
2.25 0.046875 0
2.4375 0.046875 0
2.4375 0 0
2.625 0 0
2.4375 0.046875 0
2.625 0.046875 0
2.25 0.046875 0
2.4375 0.046875 0
2.25 0.09375 0
2.4375 0.09375 0
2.4375 0.046875 0
2.625 0.046875 0
2.4375 0.09375 0
2.625 0.09375 0
2.625 0 0
2.8125 0 0
2.625 0.046875 0
2.8125 0.046875 0
2.8125 0 0
3 0 0
2.8125 0.046875 0
3 0.046875 0
2.625 0.046875 0
2.8125 0.046875 0
2.625 0.09375 0
2.8125 0.09375 0
2.8125 0.046875 0
3 0.046875 0
2.8125 0.09375 0
3 0.09375 0
2.25 0.09375 0
2.4375 0.09375 0
2.25 0.140625 0
2.4375 0.140625 0
2.4375 0.09375 0
2.625 0.09375 0
2.4375 0.140625 0
2.625 0.140625 0
2.25 0.140625 0
2.4375 0.140625 0
2.25 0.1875 0
2.4375 0.1875 0
2.4375 0.140625 0
2.625 0.140625 0
2.4375 0.1875 0
2.625 0.1875 0
2.625 0.09375 0
2.8125 0.09375 0
2.625 0.140625 0
2.8125 0.140625 0
2.8125 0.09375 0
3 0.09375 0
2.8125 0.140625 0
3 0.140625 0
2.625 0.140625 0
2.8125 0.140625 0
2.625 0.1875 0
2.8125 0.1875 0
2.8125 0.140625 0
3 0.140625 0
2.8125 0.1875 0
3 0.1875 0
1.5 0.1875 0
1.6875 0.1875 0
1.5 0.234375 0
1.6875 0.234375 0
1.6875 0.1875 0
1.875 0.1875 0
1.6875 0.234375 0
1.875 0.234375 0
1.5 0.234375 0
1.6875 0.234375 0
1.5 0.28125 0
1.6875 0.28125 0
1.6875 0.234375 0
1.875 0.234375 0
1.6875 0.28125 0
1.875 0.28125 0
1.875 0.1875 0
2.0625 0.1875 0
1.875 0.234375 0
2.0625 0.234375 0
2.0625 0.1875 0
2.25 0.1875 0
2.0625 0.234375 0
2.25 0.234375 0
1.875 0.234375 0
2.0625 0.234375 0
1.875 0.28125 0
2.0625 0.28125 0
2.0625 0.234375 0
2.25 0.234375 0
2.0625 0.28125 0
2.25 0.28125 0
1.5 0.28125 0
1.6875 0.28125 0
1.5 0.328125 0
1.6875 0.328125 0
1.6875 0.28125 0
1.875 0.28125 0
1.6875 0.328125 0
1.875 0.328125 0
1.5 0.328125 0
1.6875 0.328125 0
1.5 0.375 0
1.6875 0.375 0
1.6875 0.328125 0
1.875 0.328125 0
1.6875 0.375 0
1.875 0.375 0
1.875 0.28125 0
2.0625 0.28125 0
1.875 0.328125 0
2.0625 0.328125 0
2.0625 0.28125 0
2.25 0.28125 0
2.0625 0.328125 0
2.25 0.328125 0
1.875 0.328125 0
2.0625 0.328125 0
1.875 0.375 0
2.0625 0.375 0
2.0625 0.328125 0
2.25 0.328125 0
2.0625 0.375 0
2.25 0.375 0
2.25 0.1875 0
2.4375 0.1875 0
2.25 0.234375 0
2.4375 0.234375 0
2.4375 0.1875 0
2.625 0.1875 0
2.4375 0.234375 0
2.625 0.234375 0
2.25 0.234375 0
2.4375 0.234375 0
2.25 0.28125 0
2.4375 0.28125 0
2.4375 0.234375 0
2.625 0.234375 0
2.4375 0.28125 0
2.625 0.28125 0
2.625 0.1875 0
2.8125 0.1875 0
2.625 0.234375 0
2.8125 0.234375 0
2.8125 0.1875 0
3 0.1875 0
2.8125 0.234375 0
3 0.234375 0
2.625 0.234375 0
2.8125 0.234375 0
2.625 0.28125 0
2.8125 0.28125 0
2.8125 0.234375 0
3 0.234375 0
2.8125 0.28125 0
3 0.28125 0
2.25 0.28125 0
2.4375 0.28125 0
2.25 0.328125 0
2.4375 0.328125 0
2.4375 0.28125 0
2.625 0.28125 0
2.4375 0.328125 0
2.625 0.328125 0
2.25 0.328125 0
2.4375 0.328125 0
2.25 0.375 0
2.4375 0.375 0
2.4375 0.328125 0
2.625 0.328125 0
2.4375 0.375 0
2.625 0.375 0
2.625 0.28125 0
2.8125 0.28125 0
2.625 0.328125 0
2.8125 0.328125 0
2.8125 0.28125 0
3 0.28125 0
2.8125 0.328125 0
3 0.328125 0
2.625 0.328125 0
2.8125 0.328125 0
2.625 0.375 0
2.8125 0.375 0
2.8125 0.328125 0
3 0.328125 0
2.8125 0.375 0
3 0.375 0
0 0.375 0
0.1875 0.375 0
0 0.421875 0
0.1875 0.421875 0
0.1875 0.375 0
0.375 0.375 0
0.1875 0.421875 0
0.375 0.421875 0
0 0.421875 0
0.1875 0.421875 0
0 0.46875 0
0.1875 0.46875 0
0.1875 0.421875 0
0.375 0.421875 0
0.1875 0.46875 0
0.375 0.46875 0
0.375 0.375 0
0.5625 0.375 0
0.375 0.421875 0
0.5625 0.421875 0
0.5625 0.375 0
0.75 0.375 0
0.5625 0.421875 0
0.75 0.421875 0
0.375 0.421875 0
0.5625 0.421875 0
0.375 0.46875 0
0.5625 0.46875 0
0.5625 0.421875 0
0.75 0.421875 0
0.5625 0.46875 0
0.75 0.46875 0
0 0.46875 0
0.1875 0.46875 0
0 0.515625 0
0.1875 0.515625 0
0.1875 0.46875 0
0.375 0.46875 0
0.1875 0.515625 0
0.375 0.515625 0
0 0.515625 0
0.1875 0.515625 0
0 0.5625 0
0.1875 0.5625 0
0.1875 0.515625 0
0.375 0.515625 0
0.1875 0.5625 0
0.375 0.5625 0
0.375 0.46875 0
0.5625 0.46875 0
0.375 0.515625 0
0.5625 0.515625 0
0.5625 0.46875 0
0.75 0.46875 0
0.5625 0.515625 0
0.75 0.515625 0
0.375 0.515625 0
0.5625 0.515625 0
0.375 0.5625 0
0.5625 0.5625 0
0.5625 0.515625 0
0.75 0.515625 0
0.5625 0.5625 0
0.75 0.5625 0
0.75 0.375 0
0.9375 0.375 0
0.75 0.421875 0
0.9375 0.421875 0
0.9375 0.375 0
1.125 0.375 0
0.9375 0.421875 0
1.125 0.421875 0
0.75 0.421875 0
0.9375 0.421875 0
0.75 0.46875 0
0.9375 0.46875 0
0.9375 0.421875 0
1.125 0.421875 0
0.9375 0.46875 0
1.125 0.46875 0
1.125 0.375 0
1.3125 0.375 0
1.125 0.421875 0
1.3125 0.421875 0
1.3125 0.375 0
1.5 0.375 0
1.3125 0.421875 0
1.5 0.421875 0
1.125 0.421875 0
1.3125 0.421875 0
1.125 0.46875 0
1.3125 0.46875 0
1.3125 0.421875 0
1.5 0.421875 0
1.3125 0.46875 0
1.5 0.46875 0
0.75 0.46875 0
0.9375 0.46875 0
0.75 0.515625 0
0.9375 0.515625 0
0.9375 0.46875 0
1.125 0.46875 0
0.9375 0.515625 0
1.125 0.515625 0
0.75 0.515625 0
0.9375 0.515625 0
[...]
POINT_DATA 16384
SCALARS x_displacement double 1
LOOKUP_TABLE default
0 0.0334081 0 0.0298943 0.0334081 0.0588921 0.0298943 0.0572693 0 0.0298943 0 0.0274827 0.0298943 0.0572693 0.0274827 0.0545423 0.0588921 0.0747755 0.0572693 0.0735192 0.0747755 0.080882 0.0735192 0.0801173 0.0572693 0.0735192 0.0545423 0.0715713 0.0735192 0.0801173 0.0715713 0.0789072 0 0.0274827 0 0.0255004 0.0274827 0.0545423 0.0255004 0.0510155 0 0.0255004 0 0.0238352 0.0255004 0.0510155 0.0238352 0.0474273 0.0545423 0.0715713 0.0510155 0.0688308 0.0715713 0.0789072 0.0688308 0.07729 0.0510155 0.0688308 0.0474273 0.0651502 0.0688308 0.07729 0.0651502 0.0753975 0.080882 0.0865663 0.0801173 0.0862602 0.0865663 0.0927939 0.0862602 0.0928242 0.0801173 0.0862602 0.0789072 0.0857138 0.0862602 0.0928242 0.0857138 0.0926704 0.0927939 0.0990976 0.0928242 0.0992667 0.0990976 0.105106 0.0992667 0.105335 0.0928242 0.0992667 0.0926704 0.0993066 0.0992667 0.105335 0.0993066 0.105466 0.0789072 0.0857138 0.07729 0.0849677 0.0857138 0.0926704 0.0849677 0.0923609 0.07729 0.0849677 0.0753975 0.0840689 0.0849677 0.0923609 0.0840689 0.0919175 0.0926704 0.0993066 0.0923609 0.0992273 0.0993066 0.105466 0.0992273 0.105506 0.0923609 0.0992273 0.0919175 0.0990429 0.0992273 0.105506 0.0990429 0.105463 0 0.0238352 0 0.0224257 0.0238352 0.0474273 0.0224257 0.0440688 0 0.0224257 0 0.0211868 0.0224257 0.0440688 0.0211868 0.0414071 0.0474273 0.0651502 0.0440688 0.0614103 0.0651502 0.0753975 0.0614103 0.0734656 0.0440688 0.0614103 0.0414071 0.0584159 0.0614103 0.0734656 0.0584159 0.0715302 0 0.0211868 0 0.0201432 0.0211868 0.0414071 0.0201432 0.0392963 0 0.0201432 0 0.019284 0.0201432 0.0392963 0.019284 0.0376146 0.0414071 0.0584159 0.0392963 0.0560227 0.0584159 0.0715302 0.0560227 0.0697185 0.0392963 0.0560227 0.0376146 0.0540688 0.0560227 0.0697185 0.0540688 0.0680797 0.0753975 0.0840689 0.0734656 0.0830406 0.0840689 0.0919175 0.0830406 0.0913683 0.0734656 0.0830406 0.0715302 0.08194 0.0830406 0.0913683 0.08194 0.0907346 0.0919175 0.0990429 0.0913683 0.0987668 0.0990429 0.105463 0.0987668 0.105344 0.0913683 0.0987668 0.0907346 0.0984133 0.0987668 0.105344 0.0984133 0.105158 0.0715302 0.08194 0.0697185 0.0808005 0.08194 0.0907346 0.0808005 0.0900409 0.0697185 0.0808005 0.0680797 0.0796637 0.0808005 0.0900409 0.0796637 0.0893065 0.0907346 0.0984133 0.0900409 0.0979957 0.0984133 0.105158 0.0979957 0.104914 0.0900409 0.0979957 0.0893065 0.0975276 0.0979957 0.104914 0.0975276 0.104619 0.105106 0.110659 0.105335 0.110903 0.110659 0.115692 0.110903 0.115921 0.105335 0.110903 0.105466 0.111071 0.110903 0.115921 0.111071 0.116091 0.115692 0.120184 0.115921 0.12038 0.120184 0.124142 0.12038 0.124294 0.115921 0.12038 0.116091 0.12053 0.12038 0.124294 0.12053 0.124411 0.105466 0.111071 0.105506 0.111167 0.111071 0.116091 0.111167 0.116204 0.105506 0.111167 0.105463 0.111196 0.111167 0.116204 0.111196 0.116264 0.116091 0.12053 0.116204 0.120635 0.12053 0.124411 0.120635 0.124493 0.116204 0.120635 0.116264 0.120698 0.120635 0.124493 0.120698 0.124541 0.124142 0.127591 0.124294 0.127693 0.127591 0.130564 0.127693 0.130615 0.124294 0.127693 0.124411 0.127769 0.127693 0.130615 0.127769 0.130645 0.130564 0.133102 0.130615 0.133102 0.133102 0.135249 0.133102 0.1352 0.130615 0.133102 0.130645 0.133087 0.133102 0.1352 0.133087 0.135141 0.124411 0.127769 0.124493 0.127818 0.127769 0.130645 0.127818 0.130656 0.124493 0.127818 0.124541 0.127841 0.127818 0.130656 0.127841 0.130647 0.130645 0.133087 0.130656 0.133058 0.133087 0.135141 0.133058 0.135072 0.130656 0.133058 0.130647 0.133014 0.133058 0.135072 0.133014 0.134992 0.105463 0.111196 0.105344 0.111163 0.111196 0.116264 0.111163 0.116273 0.105344 0.111163 0.105158 0.111074 0.111163 0.116273 0.111074 0.116235 0.116264 0.120698 0.116273 0.12072 0.120698 0.124541 0.12072 0.124557 0.116273 0.12072 0.116235 0.120704 0.12072 0.124557 0.120704 0.124542 0.105158 0.111074 0.104914 0.110935 0.111074 0.116235 0.110935 0.116155 0.104914 0.110935 0.104619 0.110749 0.110935 0.116155 0.110749 0.116035 0.116235 0.120704 0.116155 0.120652 0.120704 0.124542 0.120652 0.124498 0.116155 0.120652 0.116035 0.120567 0.120652 0.124498 0.120567 0.124426 0.124541 0.127841 0.124557 0.127838 0.127841 0.130647 0.127838 0.130619 0.124557 0.127838 0.124542 0.127811 0.127838 0.130619 0.127811 0.130572 0.130647 0.133014 0.130619 0.132956 0.133014 0.134992 0.132956 0.134902 0.130619 0.132956 0.130572 0.132883 0.132956 0.134902 0.132883 0.134801 0.124542 0.127811 0.124498 0.127761 0.127811 0.130572 0.127761 0.130506 0.124498 0.127761 0.124426 0.127688 0.127761 0.130506 0.127688 0.130421 0.130572 0.132883 0.130506 0.132795 0.132883 0.134801 0.132795 0.134689 0.130506 0.132795 0.130421 0.132693 0.132795 0.134689 0.132693 0.134566 0 0.019284 0 0.0185847 0.019284 0.0376146 0.0185847 0.0362658 0 0.0185847 0 0.0180179 0.0185847 0.0362658 0.0180179 0.0351765 0.0376146 0.0540688 0.0362658 0.0524538 0.0540688 0.0680797 0.0524538 0.0666179 0.0362658 0.0524538 0.0351765 0.0511074 0.0524538 0.0666179 0.0511074 0.0653228 0 0.0180179 0 0.0175582 0.0180179 0.0351765 0.0175582 0.0342909 0 0.0175582 0 0.0171839 0.0175582 0.0342909 0.0171839 0.0335659 0.0351765 0.0511074 0.0342909 0.0499776 0.0511074 0.0653228 0.0499776 0.0641785 0.0342909 0.0499776 0.0335659 0.0490241 0.0499776 0.0641785 0.0490241 0.0631688 0.0680797 0.0796637 0.0666179 0.078562 0.0796637 0.0893065 0.078562 0.08855 0.0666179 0.078562 0.0653228 0.0775155 0.078562 0.08855 0.0775155 0.0877882 0.0893065 0.0975276 0.08855 0.0970211 0.0975276 0.104619 0.0970211 0.104283 0.08855 0.0970211 0.0877882 0.0964875 0.0970211 0.104283 0.0964875 0.103912 0.0653228 0.0775155 0.0641785 0.0765348 0.0775155 0.0877882 0.0765348 0.087035 0.0641785 0.0765348 0.0631688 0.0756241 0.0765348 0.087035 0.0756241 0.0863008 0.0877882 0.0964875 0.087035 0.0959368 0.0964875 0.103912 0.0959368 0.103515 0.087035 0.0959368 0.0863008 0.0953778 0.0959368 0.103515 0.0953778 0.103097 0 0.0171839 0 0.0168776 0.0171839 0.0335659 0.0168776 0.0329679 0 0.0168776 0 0.0166252 0.0168776 0.0329679 0.0166252 0.0324712 0.0335659 0.0490241 0.0329679 0.048215 0.0490241 0.0631688 0.048215 0.0622774 0.0329679 0.048215 0.0324712 0.0475247 0.048215 0.0622774 0.0475247 0.0614898 0 0.0166252 0 0.0164155 0.0166252 0.0324712 0.0164155 0.0320553 0 0.0164155 0 0.01624 0.0164155 0.0320553 0.01624 0.0317043 0.0324712 0.0475247 0.0320553 0.0469326 0.0475247 0.0614898 0.0469326 0.0607925 0.0320553 0.0469326 0.0317043 0.0464219 0.0469326 0.0607925 0.0464219 0.0601739 0.0631688 0.0756241 0.0622774 0.0747835 0.0756241 0.0863008 0.0747835 0.0855927 0.0622774 0.0747835 0.0614898 0.0740108 0.0747835 0.0855927 0.0740108 0.0849156 0.0863008 0.0953778 0.0855927 0.0948179 0.0953778 0.103097 0.0948179 0.102665 0.0855927 0.0948179 0.0849156 0.0942634 0.0948179 0.102665 0.0942634 0.102225 0.0614898 0.0740108 0.0607925 0.0733023 0.0740108 0.0849156 0.0733023 0.0842721 0.0607925 0.0733023 0.0601739 0.0726536 0.0733023 0.0842721 0.0726536 0.0836634 0.0849156 0.0942634 0.0842721 0.093719 0.0942634 0.102225 0.093719 0.10178 0.0842721 0.093719 0.0836634 0.0931882 0.093719 0.10178 0.0931882 0.101334 0.104619 0.110749 0.104283 0.110524 0.110749 0.116035 0.110524 0.115879 0.104283 0.110524 0.103912 0.110265 0.110524 0.115879 0.110265 0.115692 0.116035 0.120567 0.115879 0.120451 0.120567 0.124426 0.120451 0.124328 0.115879 0.120451 0.115692 0.120306 0.120451 0.124328 0.120306 0.124206 0.103912 0.110265 0.103515 0.109976 0.110265 0.115692 0.109976 0.115476 0.103515 0.109976 0.103097 0.109663 0.109976 0.115476 0.109663 0.115235 0.115692 0.120306 0.115476 0.120136 0.120306 0.124206 0.120136 0.124061 0.115476 0.120136 0.115235 0.119942 0.120136 0.124061 0.119942 0.123895 0.124426 0.127688 0.124328 0.127593 0.127688 0.130421 0.127593 0.130319 0.124328 0.127593 0.124206 0.127477 0.127593 0.130319 0.127477 0.1302 0.130421 0.132693 0.130319 0.132577 0.132693 0.134566 0.132577 0.134432 0.130319 0.132577 0.1302 0.132448 0.132577 0.134432 0.132448 0.134287 0.124206 0.127477 0.124061 0.127342 0.127477 0.1302 0.127342 0.130065 0.124061 0.127342 0.123895 0.127189 0.127342 0.130065 0.127189 0.129914 0.1302 0.132448 0.130065 0.132305 0.132448 0.134287 0.132305 0.134131 0.130065 0.132305 0.129914 0.132148 0.132305 0.134131 0.132148 0.133965 0.103097 0.109663 0.102665 0.10933 0.109663 0.115235 0.10933 0.114973 0.102665 0.10933 0.102225 0.108981 0.10933 0.114973 0.108981 0.114692 0.115235 0.119942 0.114973 0.119728 0.119942 0.123895 0.119728 0.123709 0.114973 0.119728 0.114692 0.119495 0.119728 0.123709 0.119495 0.123506 0.102225 0.108981 0.10178 0.10862 0.108981 0.114692 0.10862 0.114396 0.10178 0.10862 0.101334 0.108251 0.10862 0.114396 0.108251 0.114088 0.114692 0.119495 0.114396 0.119245 0.119495 0.123506 0.119245 0.123287 0.114396 0.119245 0.114088 0.118981 0.119245 0.123287 0.118981 0.123054 0.123895 0.127189 0.123709 0.127019 0.127189 0.129914 0.127019 0.129748 0.123709 0.127019 0.123506 0.126833 0.127019 0.129748 0.126833 0.129568 0.129914 0.132148 0.129748 0.13198 0.132148 0.133965 0.13198 0.133788 0.129748 0.13198 0.129568 0.131799 0.13198 0.133788 0.131799 0.1336 0.123506 0.126833 0.123287 0.126632 0.126833 0.129568 0.126632 0.129375 0.123287 0.126632 0.123054 0.126417 0.126632 0.129375 0.126417 0.12917 0.129568 0.131799 0.129375 0.131606 0.131799 0.1336 0.131606 0.133403 0.129375 0.131606 0.12917 0.131402 0.131606 0.133403 0.131402 0.133196 0.135249 0.137048 0.1352 0.136954 0.137048 0.138543 0.136954 0.138408 0.1352 0.136954 0.135141 0.136853 0.136954 0.138408 0.136853 0.138269 0.138543 0.139774 0.138408 0.139603 0.139774 0.14078 0.139603 0.140577 0.138408 0.139603 0.138269 0.13943 0.139603 0.140577 0.13943 0.140375 0.135141 0.136853 0.135072 0.136746 0.136853 0.138269 0.136746 0.138127 0.135072 0.136746 0.134992 0.136632 0.136746 0.138127 0.136632 0.13798 0.138269 0.13943 0.138127 0.139256 0.13943 0.140375 0.139256 0.140172 0.138127 0.139256 0.13798 0.139079 0.139256 0.140172 0.139079 0.139968 0.14078 0.141595 0.140577 0.141365 0.141595 0.14225 0.141365 0.141998 0.140577 0.141365 0.140375 0.141137 0.141365 0.141998 0.141137 0.141748 0.14225 0.142773 0.141998 0.142502 0.142773 0.143187 0.142502 0.1429 0.141998 0.142502 0.141748 0.142233 0.142502 0.1429 0.142233 0.142616 0.140375 0.141137 0.140172 0.140909 0.141137 0.141748 0.140909 0.141499 0.140172 0.140909 0.139968 0.140681 0.140909 0.141499 0.140681 0.14125 0.141748 0.142233 0.141499 0.141966 0.142233 0.142616 0.141966 0.142334 0.141499 0.141966 0.14125 0.1417 0.141966 0.142334 0.1417 0.142054 0.134992 0.136632 0.134902 0.13651 0.136632 0.13798 0.13651 0.137828 0.134902 0.13651 0.134801 0.136381 0.13651 0.137828 0.136381 0.13767 0.13798 0.139079 0.137828 0.138899 0.139079 0.139968 0.138899 0.139762 0.137828 0.138899 0.13767 0.138715 0.138899 0.139762 0.138715 0.139555 0.134801 0.136381 0.134689 0.136243 0.136381 0.13767 0.136243 0.137507 0.134689 0.136243 0.134566 0.136097 0.136243 0.137507 0.136097 0.137338 0.13767 0.138715 0.137507 0.138528 0.138715 0.139555 0.138528 0.139345 0.137507 0.138528 0.137338 0.138336 0.138528 0.139345 0.138336 0.139132 0.139968 0.140681 0.139762 0.140453 0.140681 0.14125 0.140453 0.141002 0.139762 0.140453 0.139555 0.140224 0.140453 0.141002 0.140224 0.140754 0.14125 0.1417 0.141002 0.141435 0.1417 0.142054 0.141435 0.141775 0.141002 0.141435 0.140754 0.141171 0.141435 0.141775 0.141171 0.141496 0.139555 0.140224 0.139345 0.139994 0.140224 0.140754 0.139994 0.140506 0.139345 0.139994 0.139132 0.139762 0.139994 0.140506 0.139762 0.140256 0.140754 0.141171 0.140506 0.140906 0.141171 0.141496 0.140906 0.141218 0.140506 0.140906 0.140256 0.140642 0.140906 0.141218 0.140642 0.14094 0.143187 0.143512 0.1429 0.143213 0.143512 0.143765 0.143213 0.143456 0.1429 0.143213 0.142616 0.142917 0.143213 0.143456 0.142917 0.14315 0.143765 0.14396 0.143456 0.143644 0.14396 0.144111 0.143644 0.143789 0.143456 0.143644 0.14315 0.143331 0.143644 0.143789 0.143331 0.143469 0.142616 0.142917 0.142334 0.142622 0.142917 0.14315 0.142622 0.142846 0.142334 0.142622 0.142054 0.14233 0.142622 0.142846 0.14233 0.142544 0.14315 0.143331 0.142846 0.143019 0.143331 0.143469 0.143019 0.143151 0.142846 0.143019 0.142544 0.142708 0.143019 0.143151 0.142708 0.142834 0.144111 0.144225 0.143789 0.143899 0.144225 0.144311 0.143899 0.143982 0.143789 0.143899 0.143469 0.143574 0.143899 0.143982 0.143574 0.143654 0.144311 0.144375 0.143982 0.144044 0.144375 0.144423 0.144044 0.14409 0.143982 0.144044 0.143654 0.143713 0.144044 0.14409 0.143713 0.143758 0.143469 0.143574 0.143151 0.143251 0.143574 0.143654 0.143251 0.143327 0.143151 0.143251 0.142834 0.142929 0.143251 0.143327 0.142929 0.143002 0.143654 0.143713 0.143327 0.143384 0.143713 0.143758 0.143384 0.143426 0.143327 0.143384 0.143002 0.143055 0.143384 0.143426 0.143055 0.143096 0.142054 0.14233 0.141775 0.142038 0.14233 0.142544 0.142038 0.142242 0.141775 0.142038 0.141496 0.141748 0.142038 0.142242 0.141748 0.141942 0.142544 0.142708 0.142242 0.142399 0.142708 0.142834 0.142399 0.142518 0.142242 0.142399 0.141942 0.142091 0.142399 0.142518 0.142091 0.142204 0.141496 0.141748 0.141218 0.141458 0.141748 0.141942 0.141458 0.141643 0.141218 0.141458 0.14094 0.141169 0.141458 0.141643 0.141169 0.141344 0.141942 0.142091 0.141643 0.141784 0.142091 0.142204 0.141784 0.14189 0.141643 0.141784 0.141344 0.141477 0.141784 0.14189 0.141477 0.141577 0.142834 0.142929 0.142518 0.142609 0.142929 0.143002 0.142609 0.142677 0.142518 0.142609 0.142204 0.142289 0.142609 0.142677 0.142289 0.142353 0.143002 0.143055 0.142677 0.142728 0.143055 0.143096 0.142728 0.142766 0.142677 0.142728 0.142353 0.142401 0.142728 0.142766 0.142401 0.142436 0.142204 0.142289 0.14189 0.14197 0.142289 0.142353 0.14197 0.14203 0.14189 0.14197 0.141577 0.141652 0.14197 0.14203 0.141652 0.141708 0.142353 0.142401 0.14203 0.142075 0.142401 0.142436 0.142075 0.142108 0.14203 0.142075 0.141708 0.141749 0.142075 0.142108 0.141749 0.14178 0.134566 0.136097 0.134432 0.135943 0.136097 0.137338 0.135943 0.137163 0.134432 0.135943 0.134287 0.13578 0.135943 0.137163 0.13578 0.136981 0.137338 0.138336 0.137163 0.13814 0.138336 0.139132 0.13814 0.138916 0.137163 0.13814 0.136981 0.137939 0.13814 0.138916 0.137939 0.138697 0.134287 0.13578 0.134131 0.135608 0.13578 0.136981 0.135608 0.136792 0.134131 0.135608 0.133965 0.135428 0.135608 0.136792 0.135428 0.136597 0.136981 0.137939 0.136792 0.137733 0.137939 0.138697 0.137733 0.138473 0.136792 0.137733 0.136597 0.137521 0.137733 0.138473 0.137521 0.138246 0.139132 0.139762 0.138916 0.139528 0.139762 0.140256 0.139528 0.140006 0.138916 0.139528 0.138697 0.139291 0.139528 0.140006 0.139291 0.139753 0.140256 0.140642 0.140006 0.140376 0.140642 0.14094 0.140376 0.140662 0.140006 0.140376 0.139753 0.14011 0.140376 0.140662 0.14011 0.140383 0.138697 0.139291 0.138473 0.139052 0.139291 0.139753 0.139052 0.139499 0.138473 0.139052 0.138246 0.138809 0.139052 0.139499 0.138809 0.139243 0.139753 0.14011 0.139499 0.139842 0.14011 0.140383 0.139842 0.140104 0.139499 0.139842 0.139243 0.139573 0.139842 0.140104 0.139573 0.139823 0.133965 0.135428 0.133788 0.135239 0.135428 0.136597 0.135239 0.136394 0.133788 0.135239 0.1336 0.135042 0.135239 0.136394 0.135042 0.136185 0.136597 0.137521 0.136394 0.137304 0.137521 0.138246 0.137304 0.138014 0.136394 0.137304 0.136185 0.137082 0.137304 0.138014 0.137082 0.137778 0.1336 0.135042 0.133403 0.134836 0.135042 0.136185 0.134836 0.135968 0.133403 0.134836 0.133196 0.134622 0.134836 0.135968 0.134622 0.135745 0.136185 0.137082 0.135968 0.136853 0.137082 0.137778 0.136853 0.137538 0.135968 0.136853 0.135745 0.136619 0.136853 0.137538 0.136619 0.137292 0.138246 0.138809 0.138014 0.138563 0.138809 0.139243 0.138563 0.138984 0.138014 0.138563 0.137778 0.138314 0.138563 0.138984 0.138314 0.138722 0.139243 0.139573 0.138984 0.139302 0.139573 0.139823 0.139302 0.139542 0.138984 0.139302 0.138722 0.13903 0.139302 0.139542 0.13903 0.139259 0.137778 0.138314 0.137538 0.138061 0.138314 0.138722 0.138061 0.138458 0.137538 0.138061 0.137292 0.137804 0.138061 0.138458 0.137804 0.13819 0.138722 0.13903 0.138458 0.138754 0.13903 0.139259 0.138754 0.138974 0.138458 0.138754 0.13819 0.138477 0.138754 0.138974 0.138477 0.138687 0.14094 0.141169 0.140662 0.14088 0.141169 0.141344 0.14088 0.141046 0.140662 0.14088 0.140383 0.140591 0.14088 0.141046 0.140591 0.140748 0.141344 0.141477 0.141046 0.141171 0.141477 0.141577 0.141171 0.141264 0.141046 0.141171 0.140748 0.140865 0.141171 0.141264 0.140865 0.140952 0.140383 0.140591 0.140104 0.140301 0.140591 0.140748 0.140301 0.140449 0.140104 0.140301 0.139823 0.140011 0.140301 0.140449 0.140011 0.14015 0.140748 0.140865 0.140449 0.140559 0.140865 0.140952 0.140559 0.14064 0.140449 0.140559 0.14015 0.140253 0.140559 0.14064 0.140253 0.140328 0.141577 0.141652 0.141264 0.141334 0.141652 0.141708 0.141334 0.141386 0.141264 0.141334 0.140952 0.141017 0.141334 0.141386 0.141017 0.141064 0.141708 0.141749 0.141386 0.141424 0.141749 0.14178 0.141424 0.141452 0.141386 0.141424 0.141064 0.141099 0.141424 0.141452 0.141099 0.141124 0.140952 0.141017 0.14064 0.1407 0.141017 0.141064 0.1407 0.140743 0.14064 0.1407 0.140328 0.140383 0.1407 0.140743 0.140383 0.140422 0.141064 0.141099 0.140743 0.140774 0.141099 0.141124 0.140774 0.140797 0.140743 0.140774 0.140422 0.14045 0.140774 0.140797 0.14045 0.14047 0.139823 0.140011 0.139542 0.13972 0.140011 0.14015 0.13972 0.139851 0.139542 0.13972 0.139259 0.139428 0.13972 0.139851 0.139428 0.139551 0.14015 0.140253 0.139851 0.139947 0.140253 0.140328 0.139947 0.140016 0.139851 0.139947 0.139551 0.13964 0.139947 0.140016 0.13964 0.139703 0.139259 0.139428 0.138974 0.139134 0.139428 0.139551 0.139134 0.13925 0.138974 0.139134 0.138687 0.138839 0.139134 0.13925 0.138839 0.138948 0.139551 0.13964 0.13925 0.139332 0.13964 0.139703 0.139332 0.13939 0.13925 0.139332 0.138948 0.139024 0.139332 0.13939 0.139024 0.139077 0.140328 0.140383 0.140016 0.140066 0.140383 0.140422 0.140066 0.140101 0.140016 0.140066 0.139703 0.139748 0.140066 0.140101 0.139748 0.13978 0.140422 0.14045 0.140101 0.140126 0.14045 0.14047 0.140126 0.140143 0.140101 0.140126 0.13978 0.139801 0.140126 0.140143 0.139801 0.139816 0.139703 0.139748 0.13939 0.139431 0.139748 0.13978 0.139431 0.139458 0.13939 0.139431 0.139077 0.139113 0.139431 0.139458 0.139113 0.139137 0.13978 0.139801 0.139458 0.139477 0.139801 0.139816 0.139477 0.139489 0.139458 0.139477 0.139137 0.139152 0.139477 0.139489 0.139152 0.139162 0 0.01624 0 0.0160918 0.01624 0.0317043 0.0160918 0.0314057 0 0.0160918 0 0.0159654 0.0160918 0.0314057 0.0159654 0.0311495 0.0317043 0.0464219 0.0314057 0.0459788 0.0464219 0.0601739 0.0459788 0.0596236 0.0314057 0.0459788 0.0311495 0.0455921 0.0459788 0.0596236 0.0455921 0.0591324 0 0.0159654 0 0.0158567 0.0159654 0.0311495 0.0158567 0.0309278 0 0.0158567 0 0.0157622 0.0158567 0.0309278 0.0157622 0.0307343 0.0311495 0.0455921 0.0309278 0.0452526 0.0455921 0.0591324 0.0452526 0.0586926 0.0309278 0.0452526 0.0307343 0.0449526 0.0452526 0.0586926 0.0449526 0.0582973 0.0601739 0.0726536 0.0596236 0.0720598 0.0726536 0.0836634 0.0720598 0.0830898 0.0596236 0.0720598 0.0591324 0.0715164 0.0720598 0.0830898 0.0715164 0.0825504 0.0836634 0.0931882 0.0830898 0.0926738 0.0931882 0.101334 0.0926738 0.100892 0.0830898 0.0926738 0.0825504 0.0921774 0.0926738 0.100892 0.0921774 0.100455 0.0591324 0.0715164 0.0586926 0.0710185 0.0715164 0.0825504 0.0710185 0.0820441 0.0586926 0.0710185 0.0582973 0.0705619 0.0710185 0.0820441 0.0705619 0.0815694 0.0825504 0.0921774 0.0820441 0.0917003 0.0921774 0.100455 0.0917003 0.100026 0.0820441 0.0917003 0.0815694 0.0912429 0.0917003 0.100026 0.0912429 0.0996054 0 0.0157622 0 0.0156793 0.0157622 0.0307343 0.0156793 0.0305639 0 0.0156793 0 0.0156058 0.0156793 0.0305639 0.0156058 0.0304125 0.0307343 0.0449526 0.0305639 0.0446859 0.0449526 0.0582973 0.0446859 0.0579407 0.0305639 0.0446859 0.0304125 0.0444473 0.0446859 0.0579407 0.0444473 0.0576176 0 0.0156058 0 0.015