# vtk DataFile Version 3.0
#This file was generated by the deal.II library on 2022/1/6 at 21:27:36
ASCII
DATASET UNSTRUCTURED_GRID

POINTS 16384 double
0 0 0
0.1875 0 0
0 0.046875 0
0.1875 0.046875 0
0.1875 0 0
0.375 0 0
0.1875 0.046875 0
0.375 0.046875 0
0 0.046875 0
0.1875 0.046875 0
0 0.09375 0
0.1875 0.09375 0
0.1875 0.046875 0
0.375 0.046875 0
0.1875 0.09375 0
0.375 0.09375 0
0.375 0 0
0.5625 0 0
0.375 0.046875 0
0.5625 0.046875 0
0.5625 0 0
0.75 0 0
0.5625 0.046875 0
0.75 0.046875 0
0.375 0.046875 0
0.5625 0.046875 0
0.375 0.09375 0
0.5625 0.09375 0
0.5625 0.046875 0
0.75 0.046875 0
0.5625 0.09375 0
0.75 0.09375 0
0 0.09375 0
0.1875 0.09375 0
0 0.140625 0
0.1875 0.140625 0
0.1875 0.09375 0
0.375 0.09375 0
0.1875 0.140625 0
0.375 0.140625 0
0 0.140625 0
0.1875 0.140625 0
0 0.1875 0
0.1875 0.1875 0
0.1875 0.140625 0
0.375 0.140625 0
0.1875 0.1875 0
0.375 0.1875 0
0.375 0.09375 0
0.5625 0.09375 0
0.375 0.140625 0
0.5625 0.140625 0
0.5625 0.09375 0
0.75 0.09375 0
0.5625 0.140625 0
0.75 0.140625 0
0.375 0.140625 0
0.5625 0.140625 0
0.375 0.1875 0
0.5625 0.1875 0
0.5625 0.140625 0
0.75 0.140625 0
0.5625 0.1875 0
0.75 0.1875 0
0.75 0 0
0.9375 0 0
0.75 0.046875 0
0.9375 0.046875 0
0.9375 0 0
1.125 0 0
0.9375 0.046875 0
1.125 0.046875 0
0.75 0.046875 0
0.9375 0.046875 0
0.75 0.09375 0
0.9375 0.09375 0
0.9375 0.046875 0
1.125 0.046875 0
0.9375 0.09375 0
1.125 0.09375 0
1.125 0 0
1.3125 0 0
1.125 0.046875 0
1.3125 0.046875 0
1.3125 0 0
1.5 0 0
1.3125 0.046875 0
1.5 0.046875 0
1.125 0.046875 0
1.3125 0.046875 0
1.125 0.09375 0
1.3125 0.09375 0
1.3125 0.046875 0
1.5 0.046875 0
1.3125 0.09375 0
1.5 0.09375 0
0.75 0.09375 0
0.9375 0.09375 0
0.75 0.140625 0
0.9375 0.140625 0
0.9375 0.09375 0
1.125 0.09375 0
0.9375 0.140625 0
1.125 0.140625 0
0.75 0.140625 0
0.9375 0.140625 0
0.75 0.1875 0
0.9375 0.1875 0
0.9375 0.140625 0
1.125 0.140625 0
0.9375 0.1875 0
1.125 0.1875 0
1.125 0.09375 0
1.3125 0.09375 0
1.125 0.140625 0
1.3125 0.140625 0
1.3125 0.09375 0
1.5 0.09375 0
1.3125 0.140625 0
1.5 0.140625 0
1.125 0.140625 0
1.3125 0.140625 0
1.125 0.1875 0
1.3125 0.1875 0
1.3125 0.140625 0
1.5 0.140625 0
1.3125 0.1875 0
1.5 0.1875 0
0 0.1875 0
0.1875 0.1875 0
0 0.234375 0
0.1875 0.234375 0
0.1875 0.1875 0
0.375 0.1875 0
0.1875 0.234375 0
0.375 0.234375 0
0 0.234375 0
0.1875 0.234375 0
0 0.28125 0
0.1875 0.28125 0
0.1875 0.234375 0
0.375 0.234375 0
0.1875 0.28125 0
0.375 0.28125 0
0.375 0.1875 0
0.5625 0.1875 0
0.375 0.234375 0
0.5625 0.234375 0
0.5625 0.1875 0
0.75 0.1875 0
0.5625 0.234375 0
0.75 0.234375 0
0.375 0.234375 0
0.5625 0.234375 0
0.375 0.28125 0
0.5625 0.28125 0
0.5625 0.234375 0
0.75 0.234375 0
0.5625 0.28125 0
0.75 0.28125 0
0 0.28125 0
0.1875 0.28125 0
0 0.328125 0
0.1875 0.328125 0
0.1875 0.28125 0
0.375 0.28125 0
0.1875 0.328125 0
0.375 0.328125 0
0 0.328125 0
0.1875 0.328125 0
0 0.375 0
0.1875 0.375 0
0.1875 0.328125 0
0.375 0.328125 0
0.1875 0.375 0
0.375 0.375 0
0.375 0.28125 0
0.5625 0.28125 0
0.375 0.328125 0
0.5625 0.328125 0
0.5625 0.28125 0
0.75 0.28125 0
0.5625 0.328125 0
0.75 0.328125 0
0.375 0.328125 0
0.5625 0.328125 0
0.375 0.375 0
0.5625 0.375 0
0.5625 0.328125 0
0.75 0.328125 0
0.5625 0.375 0
0.75 0.375 0
0.75 0.1875 0
0.9375 0.1875 0
0.75 0.234375 0
0.9375 0.234375 0
0.9375 0.1875 0
1.125 0.1875 0
0.9375 0.234375 0
1.125 0.234375 0
0.75 0.234375 0
0.9375 0.234375 0
0.75 0.28125 0
0.9375 0.28125 0
0.9375 0.234375 0
1.125 0.234375 0
0.9375 0.28125 0
1.125 0.28125 0
1.125 0.1875 0
1.3125 0.1875 0
1.125 0.234375 0
1.3125 0.234375 0
1.3125 0.1875 0
1.5 0.1875 0
1.3125 0.234375 0
1.5 0.234375 0
1.125 0.234375 0
1.3125 0.234375 0
1.125 0.28125 0
1.3125 0.28125 0
1.3125 0.234375 0
1.5 0.234375 0
1.3125 0.28125 0
1.5 0.28125 0
0.75 0.28125 0
0.9375 0.28125 0
0.75 0.328125 0
0.9375 0.328125 0
0.9375 0.28125 0
1.125 0.28125 0
0.9375 0.328125 0
1.125 0.328125 0
0.75 0.328125 0
0.9375 0.328125 0
0.75 0.375 0
0.9375 0.375 0
0.9375 0.328125 0
1.125 0.328125 0
0.9375 0.375 0
1.125 0.375 0
1.125 0.28125 0
1.3125 0.28125 0
1.125 0.328125 0
1.3125 0.328125 0
1.3125 0.28125 0
1.5 0.28125 0
1.3125 0.328125 0
1.5 0.328125 0
1.125 0.328125 0
1.3125 0.328125 0
1.125 0.375 0
1.3125 0.375 0
1.3125 0.328125 0
1.5 0.328125 0
1.3125 0.375 0
1.5 0.375 0
1.5 0 0
1.6875 0 0
1.5 0.046875 0
1.6875 0.046875 0
1.6875 0 0
1.875 0 0
1.6875 0.046875 0
1.875 0.046875 0
1.5 0.046875 0
1.6875 0.046875 0
1.5 0.09375 0
1.6875 0.09375 0
1.6875 0.046875 0
1.875 0.046875 0
1.6875 0.09375 0
1.875 0.09375 0
1.875 0 0
2.0625 0 0
1.875 0.046875 0
2.0625 0.046875 0
2.0625 0 0
2.25 0 0
2.0625 0.046875 0
2.25 0.046875 0
1.875 0.046875 0
2.0625 0.046875 0
1.875 0.09375 0
2.0625 0.09375 0
2.0625 0.046875 0
2.25 0.046875 0
2.0625 0.09375 0
2.25 0.09375 0
1.5 0.09375 0
1.6875 0.09375 0
1.5 0.140625 0
1.6875 0.140625 0
1.6875 0.09375 0
1.875 0.09375 0
1.6875 0.140625 0
1.875 0.140625 0
1.5 0.140625 0
1.6875 0.140625 0
1.5 0.1875 0
1.6875 0.1875 0
1.6875 0.140625 0
1.875 0.140625 0
1.6875 0.1875 0
1.875 0.1875 0
1.875 0.09375 0
2.0625 0.09375 0
1.875 0.140625 0
2.0625 0.140625 0
2.0625 0.09375 0
2.25 0.09375 0
2.0625 0.140625 0
2.25 0.140625 0
1.875 0.140625 0
2.0625 0.140625 0
1.875 0.1875 0
2.0625 0.1875 0
2.0625 0.140625 0
2.25 0.140625 0
2.0625 0.1875 0
2.25 0.1875 0
2.25 0 0
2.4375 0 0
2.25 0.046875 0
2.4375 0.046875 0
2.4375 0 0
2.625 0 0
2.4375 0.046875 0
2.625 0.046875 0
2.25 0.046875 0
2.4375 0.046875 0
2.25 0.09375 0
2.4375 0.09375 0
2.4375 0.046875 0
2.625 0.046875 0
2.4375 0.09375 0
2.625 0.09375 0
2.625 0 0
2.8125 0 0
2.625 0.046875 0
2.8125 0.046875 0
2.8125 0 0
3 0 0
2.8125 0.046875 0
3 0.046875 0
2.625 0.046875 0
2.8125 0.046875 0
2.625 0.09375 0
2.8125 0.09375 0
2.8125 0.046875 0
3 0.046875 0
2.8125 0.09375 0
3 0.09375 0
2.25 0.09375 0
2.4375 0.09375 0
2.25 0.140625 0
2.4375 0.140625 0
2.4375 0.09375 0
2.625 0.09375 0
2.4375 0.140625 0
2.625 0.140625 0
2.25 0.140625 0
2.4375 0.140625 0
2.25 0.1875 0
2.4375 0.1875 0
2.4375 0.140625 0
2.625 0.140625 0
2.4375 0.1875 0
2.625 0.1875 0
2.625 0.09375 0
2.8125 0.09375 0
2.625 0.140625 0
2.8125 0.140625 0
2.8125 0.09375 0
3 0.09375 0
2.8125 0.140625 0
3 0.140625 0
2.625 0.140625 0
2.8125 0.140625 0
2.625 0.1875 0
2.8125 0.1875 0
2.8125 0.140625 0
3 0.140625 0
2.8125 0.1875 0
3 0.1875 0
1.5 0.1875 0
1.6875 0.1875 0
1.5 0.234375 0
1.6875 0.234375 0
1.6875 0.1875 0
1.875 0.1875 0
1.6875 0.234375 0
1.875 0.234375 0
1.5 0.234375 0
1.6875 0.234375 0
1.5 0.28125 0
1.6875 0.28125 0
1.6875 0.234375 0
1.875 0.234375 0
1.6875 0.28125 0
1.875 0.28125 0
1.875 0.1875 0
2.0625 0.1875 0
1.875 0.234375 0
2.0625 0.234375 0
2.0625 0.1875 0
2.25 0.1875 0
2.0625 0.234375 0
2.25 0.234375 0
1.875 0.234375 0
2.0625 0.234375 0
1.875 0.28125 0
2.0625 0.28125 0
2.0625 0.234375 0
2.25 0.234375 0
2.0625 0.28125 0
2.25 0.28125 0
1.5 0.28125 0
1.6875 0.28125 0
1.5 0.328125 0
1.6875 0.328125 0
1.6875 0.28125 0
1.875 0.28125 0
1.6875 0.328125 0
1.875 0.328125 0
1.5 0.328125 0
1.6875 0.328125 0
1.5 0.375 0
1.6875 0.375 0
1.6875 0.328125 0
1.875 0.328125 0
1.6875 0.375 0
1.875 0.375 0
1.875 0.28125 0
2.0625 0.28125 0
1.875 0.328125 0
2.0625 0.328125 0
2.0625 0.28125 0
2.25 0.28125 0
2.0625 0.328125 0
2.25 0.328125 0
1.875 0.328125 0
2.0625 0.328125 0
1.875 0.375 0
2.0625 0.375 0
2.0625 0.328125 0
2.25 0.328125 0
2.0625 0.375 0
2.25 0.375 0
2.25 0.1875 0
2.4375 0.1875 0
2.25 0.234375 0
2.4375 0.234375 0
2.4375 0.1875 0
2.625 0.1875 0
2.4375 0.234375 0
2.625 0.234375 0
2.25 0.234375 0
2.4375 0.234375 0
2.25 0.28125 0
2.4375 0.28125 0
2.4375 0.234375 0
2.625 0.234375 0
2.4375 0.28125 0
2.625 0.28125 0
2.625 0.1875 0
2.8125 0.1875 0
2.625 0.234375 0
2.8125 0.234375 0
2.8125 0.1875 0
3 0.1875 0
2.8125 0.234375 0
3 0.234375 0
2.625 0.234375 0
2.8125 0.234375 0
2.625 0.28125 0
2.8125 0.28125 0
2.8125 0.234375 0
3 0.234375 0
2.8125 0.28125 0
3 0.28125 0
2.25 0.28125 0
2.4375 0.28125 0
2.25 0.328125 0
2.4375 0.328125 0
2.4375 0.28125 0
2.625 0.28125 0
2.4375 0.328125 0
2.625 0.328125 0
2.25 0.328125 0
2.4375 0.328125 0
2.25 0.375 0
2.4375 0.375 0
2.4375 0.328125 0
2.625 0.328125 0
2.4375 0.375 0
2.625 0.375 0
2.625 0.28125 0
2.8125 0.28125 0
2.625 0.328125 0
2.8125 0.328125 0
2.8125 0.28125 0
3 0.28125 0
2.8125 0.328125 0
3 0.328125 0
2.625 0.328125 0
2.8125 0.328125 0
2.625 0.375 0
2.8125 0.375 0
2.8125 0.328125 0
3 0.328125 0
2.8125 0.375 0
3 0.375 0
0 0.375 0
0.1875 0.375 0
0 0.421875 0
0.1875 0.421875 0
0.1875 0.375 0
0.375 0.375 0
0.1875 0.421875 0
0.375 0.421875 0
0 0.421875 0
0.1875 0.421875 0
0 0.46875 0
0.1875 0.46875 0
0.1875 0.421875 0
0.375 0.421875 0
0.1875 0.46875 0
0.375 0.46875 0
0.375 0.375 0
0.5625 0.375 0
0.375 0.421875 0
0.5625 0.421875 0
0.5625 0.375 0
0.75 0.375 0
0.5625 0.421875 0
0.75 0.421875 0
0.375 0.421875 0
0.5625 0.421875 0
0.375 0.46875 0
0.5625 0.46875 0
0.5625 0.421875 0
0.75 0.421875 0
0.5625 0.46875 0
0.75 0.46875 0
0 0.46875 0
0.1875 0.46875 0
0 0.515625 0
0.1875 0.515625 0
0.1875 0.46875 0
0.375 0.46875 0
0.1875 0.515625 0
0.375 0.515625 0
0 0.515625 0
0.1875 0.515625 0
0 0.5625 0
0.1875 0.5625 0
0.1875 0.515625 0
0.375 0.515625 0
0.1875 0.5625 0
0.375 0.5625 0
0.375 0.46875 0
0.5625 0.46875 0
0.375 0.515625 0
0.5625 0.515625 0
0.5625 0.46875 0
0.75 0.46875 0
0.5625 0.515625 0
0.75 0.515625 0
0.375 0.515625 0
0.5625 0.515625 0
0.375 0.5625 0
0.5625 0.5625 0
0.5625 0.515625 0
0.75 0.515625 0
0.5625 0.5625 0
0.75 0.5625 0
0.75 0.375 0
0.9375 0.375 0
0.75 0.421875 0
0.9375 0.421875 0
0.9375 0.375 0
1.125 0.375 0
0.9375 0.421875 0
1.125 0.421875 0
0.75 0.421875 0
0.9375 0.421875 0
0.75 0.46875 0
0.9375 0.46875 0
0.9375 0.421875 0
1.125 0.421875 0
0.9375 0.46875 0
1.125 0.46875 0
1.125 0.375 0
1.3125 0.375 0
1.125 0.421875 0
1.3125 0.421875 0
1.3125 0.375 0
1.5 0.375 0
1.3125 0.421875 0
1.5 0.421875 0
1.125 0.421875 0
1.3125 0.421875 0
1.125 0.46875 0
1.3125 0.46875 0
1.3125 0.421875 0
1.5 0.421875 0
1.3125 0.46875 0
1.5 0.46875 0
0.75 0.46875 0
0.9375 0.46875 0
0.75 0.515625 0
0.9375 0.515625 0
0.9375 0.46875 0
1.125 0.46875 0
0.9375 0.515625 0
1.125 0.515625 0
0.75 0.515625 0
0.9375 0.515625 0
[...]
POINT_DATA 16384
SCALARS x_displacement double 1
LOOKUP_TABLE default
0 0.0244209 0 0.0226546 0.0244209 0.0373045 0.0226546 0.0377758 0 0.0226546 0 0.0214035 0.0226546 0.0377758 0.0214035 0.0366193 0.0373045 0.0423147 0.0377758 0.0418474 0.0423147 0.0382182 0.0418474 0.0376939 0.0377758 0.0418474 0.0366193 0.0407301 0.0418474 0.0376939 0.0407301 0.0367794 0 0.0214035 0 0.0201963 0.0214035 0.0366193 0.0201963 0.0342453 0 0.0201963 0 0.0190439 0.0201963 0.0342453 0.0190439 0.0314594 0.0366193 0.0407301 0.0342453 0.038753 0.0407301 0.0367794 0.038753 0.0354969 0.0342453 0.038753 0.0314594 0.0357361 0.038753 0.0354969 0.0357361 0.0339478 0.0382182 0.0347381 0.0376939 0.0343472 0.0347381 0.0326889 0.0343472 0.0324357 0.0376939 0.0343472 0.0367794 0.0337874 0.0343472 0.0324357 0.0337874 0.0320684 0.0326889 0.0315374 0.0324357 0.031301 0.0315374 0.0308694 0.031301 0.0306256 0.0324357 0.031301 0.0320684 0.0310018 0.031301 0.0306256 0.0310018 0.0303438 0.0367794 0.0337874 0.0354969 0.0330811 0.0337874 0.0320684 0.0330811 0.0316056 0.0354969 0.0330811 0.0339478 0.0322624 0.0330811 0.0316056 0.0322624 0.0310586 0.0320684 0.0310018 0.0316056 0.0306421 0.0310018 0.0303438 0.0306421 0.0300257 0.0316056 0.0306421 0.0310586 0.0302291 0.0306421 0.0300257 0.0302291 0.0296731 0 0.0190439 0 0.0179683 0.0190439 0.0314594 0.0179683 0.0286374 0 0.0179683 0 0.016944 0.0179683 0.0286374 0.016944 0.0263337 0.0314594 0.0357361 0.0286374 0.0325474 0.0357361 0.0339478 0.0325474 0.0323462 0.0286374 0.0325474 0.0263337 0.029991 0.0325474 0.0323462 0.029991 0.0307152 0 0.016944 0 0.016037 0.016944 0.0263337 0.016037 0.0244616 0 0.016037 0 0.0152637 0.016037 0.0244616 0.0152637 0.0229372 0.0263337 0.029991 0.0244616 0.0279362 0.029991 0.0307152 0.0279362 0.0291734 0.0244616 0.0279362 0.0229372 0.0262388 0.0279362 0.0291734 0.0262388 0.0277667 0.0339478 0.0322624 0.0323462 0.0313414 0.0322624 0.0310586 0.0313414 0.0304463 0.0323462 0.0313414 0.0307152 0.0303636 0.0313414 0.0304463 0.0303636 0.0297819 0.0310586 0.0302291 0.0304463 0.0297691 0.0302291 0.0296731 0.0297691 0.0292891 0.0304463 0.0297691 0.0297819 0.0292701 0.0297691 0.0292891 0.0292701 0.0288773 0.0307152 0.0303636 0.0291734 0.0293529 0.0303636 0.0297819 0.0293529 0.0290821 0.0291734 0.0293529 0.0277667 0.0283437 0.0293529 0.0290821 0.0283437 0.0283599 0.0297819 0.0292701 0.0290821 0.0287395 0.0292701 0.0288773 0.0287395 0.0284418 0.0290821 0.0287395 0.0283599 0.0281855 0.0287395 0.0284418 0.0281855 0.0279865 0.0308694 0.0304819 0.0306256 0.0302241 0.0304819 0.030264 0.0302241 0.0299906 0.0306256 0.0302241 0.0303438 0.0299427 0.0302241 0.0299906 0.0299427 0.0297025 0.030264 0.0301502 0.0299906 0.0298622 0.0301502 0.0300998 0.0298622 0.029799 0.0299906 0.0298622 0.0297025 0.029565 0.0298622 0.029799 0.029565 0.0294925 0.0303438 0.0299427 0.0300257 0.0296381 0.0299427 0.0297025 0.0296381 0.0293997 0.0300257 0.0296381 0.0296731 0.0293115 0.0296381 0.0293997 0.0293115 0.0290826 0.0297025 0.029565 0.0293997 0.0292585 0.029565 0.0294925 0.0292585 0.0291803 0.0293997 0.0292585 0.0290826 0.0289428 0.0292585 0.0291803 0.0289428 0.0288621 0.0300998 0.0300874 0.029799 0.0297758 0.0300874 0.0300969 0.0297758 0.0297762 0.029799 0.0297758 0.0294925 0.0294608 0.0297758 0.0297762 0.0294608 0.0294537 0.0300969 0.0301177 0.0297762 0.0297898 0.0301177 0.0301435 0.0297898 0.0298098 0.0297762 0.0297898 0.0294537 0.029461 0.0297898 0.0298098 0.029461 0.0294758 0.0294925 0.0294608 0.0291803 0.0291422 0.0294608 0.0294537 0.0291422 0.0291292 0.0291803 0.0291422 0.0288621 0.02882 0.0291422 0.0291292 0.02882 0.0288025 0.0294537 0.029461 0.0291292 0.0291312 0.029461 0.0294758 0.0291312 0.0291414 0.0291292 0.0291312 0.0288025 0.0288001 0.0291312 0.0291414 0.0288001 0.0288064 0.0296731 0.0293115 0.0292891 0.028964 0.0293115 0.0290826 0.028964 0.0287516 0.0292891 0.028964 0.0288773 0.0285975 0.028964 0.0287516 0.0285975 0.0284077 0.0290826 0.0289428 0.0287516 0.0286179 0.0289428 0.0288621 0.0286179 0.028538 0.0287516 0.0286179 0.0284077 0.0282844 0.0286179 0.028538 0.0282844 0.0282082 0.0288773 0.0285975 0.0284418 0.0282139 0.0285975 0.0284077 0.0282139 0.0280518 0.0284418 0.0282139 0.0279865 0.0278153 0.0282139 0.0280518 0.0278153 0.0276851 0.0284077 0.0282844 0.0280518 0.0279426 0.0282844 0.0282082 0.0279426 0.0278727 0.0280518 0.0279426 0.0276851 0.0275932 0.0279426 0.0278727 0.0275932 0.027532 0.0288621 0.02882 0.028538 0.0284941 0.02882 0.0288025 0.0284941 0.0284735 0.028538 0.0284941 0.0282082 0.0281643 0.0284941 0.0284735 0.0281643 0.0281421 0.0288025 0.0288001 0.0284735 0.0284677 0.0288001 0.0288064 0.0284677 0.0284706 0.0284735 0.0284677 0.0281421 0.0281338 0.0284677 0.0284706 0.0281338 0.0281341 0.0282082 0.0281643 0.0278727 0.0278309 0.0281643 0.0281421 0.0278309 0.0278083 0.0278727 0.0278309 0.027532 0.0274939 0.0278309 0.0278083 0.0274939 0.0274721 0.0281421 0.0281338 0.0278083 0.0277985 0.0281338 0.0281341 0.0277985 0.0277967 0.0278083 0.0277985 0.0274721 0.0274616 0.0277985 0.0277967 0.0274616 0.0274584 0 0.0152637 0 0.0146168 0.0152637 0.0229372 0.0146168 0.0216896 0 0.0146168 0 0.0140802 0.0146168 0.0216896 0.0140802 0.0206628 0.0229372 0.0262388 0.0216896 0.024815 0.0262388 0.0277667 0.024815 0.0265001 0.0216896 0.024815 0.0206628 0.0236092 0.024815 0.0265001 0.0236092 0.0253659 0 0.0140802 0 0.0136359 0.0140802 0.0206628 0.0136359 0.0198128 0 0.0136359 0 0.0132672 0.0136359 0.0198128 0.0132672 0.0191048 0.0206628 0.0236092 0.0198128 0.0225808 0.0236092 0.0253659 0.0225808 0.0243523 0.0198128 0.0225808 0.0191048 0.0216987 0.0225808 0.0243523 0.0216987 0.0234471 0.0277667 0.0283437 0.0265001 0.0273633 0.0283437 0.0283599 0.0273633 0.0276283 0.0265001 0.0273633 0.0253659 0.0264286 0.0273633 0.0276283 0.0264286 0.0268996 0.0283599 0.0281855 0.0276283 0.0276156 0.0281855 0.0279865 0.0276156 0.0275157 0.0276283 0.0276156 0.0268996 0.0270365 0.0276156 0.0275157 0.0270365 0.0270336 0.0253659 0.0264286 0.0243523 0.0255483 0.0264286 0.0268996 0.0255483 0.0261839 0.0243523 0.0255483 0.0234471 0.024726 0.0255483 0.0261839 0.024726 0.025489 0.0268996 0.0270365 0.0261839 0.0264546 0.0270365 0.0270336 0.0264546 0.0265441 0.0261839 0.0264546 0.025489 0.0258756 0.0264546 0.0265441 0.0258756 0.0260509 0 0.0132672 0 0.0129598 0.0132672 0.0191048 0.0129598 0.0185112 0 0.0129598 0 0.0127018 0.0129598 0.0185112 0.0127018 0.0180101 0.0191048 0.0216987 0.0185112 0.0209382 0.0216987 0.0234471 0.0209382 0.0226383 0.0185112 0.0209382 0.0180101 0.0202794 0.0209382 0.0226383 0.0202794 0.0219148 0 0.0127018 0 0.0124839 0.0127018 0.0180101 0.0124839 0.0175842 0 0.0124839 0 0.0122982 0.0124839 0.0175842 0.0122982 0.0172194 0.0180101 0.0202794 0.0175842 0.0197059 0.0202794 0.0219148 0.0197059 0.0212666 0.0175842 0.0197059 0.0172194 0.0192043 0.0197059 0.0212666 0.0192043 0.0206846 0.0234471 0.024726 0.0226383 0.023962 0.024726 0.025489 0.023962 0.0248199 0.0226383 0.023962 0.0219148 0.0232547 0.023962 0.0248199 0.0232547 0.0241801 0.025489 0.0258756 0.0248199 0.0253042 0.0258756 0.0260509 0.0253042 0.0255573 0.0248199 0.0253042 0.0241801 0.0247443 0.0253042 0.0255573 0.0247443 0.0250663 0.0219148 0.0232547 0.0212666 0.0226011 0.0232547 0.0241801 0.0226011 0.0235713 0.0212666 0.0226011 0.0206846 0.021998 0.0226011 0.0235713 0.021998 0.022994 0.0241801 0.0247443 0.0235713 0.0241988 0.0247443 0.0250663 0.0241988 0.0245804 0.0235713 0.0241988 0.022994 0.02367 0.0241988 0.0245804 0.02367 0.0241017 0.0279865 0.0278153 0.0275157 0.0274042 0.0278153 0.0276851 0.0274042 0.0273089 0.0275157 0.0274042 0.0270336 0.0269828 0.0274042 0.0273089 0.0269828 0.0269245 0.0276851 0.0275932 0.0273089 0.0272368 0.0275932 0.027532 0.0272368 0.0271863 0.0273089 0.0272368 0.0269245 0.0268742 0.0272368 0.0271863 0.0268742 0.0268361 0.0270336 0.0269828 0.0265441 0.0265536 0.0269828 0.0269245 0.0265536 0.0265333 0.0265441 0.0265536 0.0260509 0.0261189 0.0265536 0.0265333 0.0261189 0.0261367 0.0269245 0.0268742 0.0265333 0.0265063 0.0268742 0.0268361 0.0265063 0.0264819 0.0265333 0.0265063 0.0261367 0.0261338 0.0265063 0.0264819 0.0261338 0.026124 0.027532 0.0274939 0.0271863 0.0271534 0.0274939 0.0274721 0.0271534 0.0271336 0.0271863 0.0271534 0.0268361 0.0268097 0.0271534 0.0271336 0.0268097 0.0267929 0.0274721 0.0274616 0.0271336 0.0271232 0.0274616 0.0274584 0.0271232 0.0271191 0.0271336 0.0271232 0.0267929 0.0267833 0.0271232 0.0271191 0.0267833 0.0267788 0.0268361 0.0268097 0.0264819 0.0264631 0.0268097 0.0267929 0.0264631 0.02645 0.0264819 0.0264631 0.026124 0.0261137 0.0264631 0.02645 0.0261137 0.0261052 0.0267929 0.0267833 0.02645 0.0264419 0.0267833 0.0267788 0.0264419 0.0264375 0.02645 0.0264419 0.0261052 0.0260991 0.0264419 0.0264375 0.0260991 0.0260953 0.0260509 0.0261189 0.0255573 0.0256808 0.0261189 0.0261367 0.0256808 0.0257362 0.0255573 0.0256808 0.0250663 0.0252415 0.0256808 0.0257362 0.0252415 0.025333 0.0261367 0.0261338 0.0257362 0.0257576 0.0261338 0.026124 0.0257576 0.0257631 0.0257362 0.0257576 0.025333 0.0253786 0.0257576 0.0257631 0.0253786 0.0253996 0.0250663 0.0252415 0.0245804 0.0248027 0.0252415 0.025333 0.0248027 0.0249285 0.0245804 0.0248027 0.0241017 0.0243662 0.0248027 0.0249285 0.0243662 0.0245237 0.025333 0.0253786 0.0249285 0.0249976 0.0253786 0.0253996 0.0249976 0.0250341 0.0249285 0.0249976 0.0245237 0.0246153 0.0249976 0.0250341 0.0246153 0.0246672 0.026124 0.0261137 0.0257631 0.0257619 0.0261137 0.0261052 0.0257619 0.0257585 0.0257631 0.0257619 0.0253996 0.025408 0.0257619 0.0257585 0.025408 0.0254102 0.0261052 0.0260991 0.0257585 0.025755 0.0260991 0.0260953 0.025755 0.0257521 0.0257585 0.025755 0.0254102 0.0254096 0.025755 0.0257521 0.0254096 0.0254079 0.0253996 0.025408 0.0250341 0.0250524 0.025408 0.0254102 0.0250524 0.0250604 0.0250341 0.0250524 0.0246672 0.0246952 0.0250524 0.0250604 0.0246952 0.0247094 0.0254102 0.0254096 0.0250604 0.0250631 0.0254096 0.0254079 0.0250631 0.0250629 0.0250604 0.0250631 0.0247094 0.0247155 0.0250631 0.0250629 0.0247155 0.0247171 0.0301435 0.0301702 0.0298098 0.029832 0.0301702 0.0301956 0.029832 0.0298538 0.0298098 0.029832 0.0294758 0.0294938 0.029832 0.0298538 0.0294938 0.0295123 0.0301956 0.0302183 0.0298538 0.0298739 0.0302183 0.030238 0.0298739 0.0298916 0.0298538 0.0298739 0.0295123 0.0295299 0.0298739 0.0298916 0.0295299 0.0295456 0.0294758 0.0294938 0.0291414 0.0291556 0.0294938 0.0295123 0.0291556 0.029171 0.0291414 0.0291556 0.0288064 0.0288172 0.0291556 0.029171 0.0288172 0.0288298 0.0295123 0.0295299 0.029171 0.0291861 0.0295299 0.0295456 0.0291861 0.0291999 0.029171 0.0291861 0.0288298 0.0288425 0.0291861 0.0291999 0.0288425 0.0288545 0.030238 0.0302545 0.0298916 0.0299066 0.0302545 0.030268 0.0299066 0.0299191 0.0298916 0.0299066 0.0295456 0.0295591 0.0299066 0.0299191 0.0295591 0.0295705 0.030268 0.0302788 0.0299191 0.0299291 0.0302788 0.0302873 0.0299291 0.0299371 0.0299191 0.0299291 0.0295705 0.0295797 0.0299291 0.0299371 0.0295797 0.0295871 0.0295456 0.0295591 0.0291999 0.029212 0.0295591 0.0295705 0.029212 0.0292222 0.0291999 0.029212 0.0288545 0.0288651 0.029212 0.0292222 0.0288651 0.0288742 0.0295705 0.0295797 0.0292222 0.0292307 0.0295797 0.0295871 0.0292307 0.0292374 0.0292222 0.0292307 0.0288742 0.0288818 0.0292307 0.0292374 0.0288818 0.028888 0.0288064 0.0288172 0.0284706 0.0284784 0.0288172 0.0288298 0.0284784 0.0284885 0.0284706 0.0284784 0.0281341 0.0281393 0.0284784 0.0284885 0.0281393 0.028147 0.0288298 0.0288425 0.0284885 0.028499 0.0288425 0.0288545 0.028499 0.0285092 0.0284885 0.028499 0.028147 0.0281556 0.028499 0.0285092 0.0281556 0.0281641 0.0281341 0.0281393 0.0277967 0.0277998 0.0281393 0.028147 0.0277998 0.0278054 0.0277967 0.0277998 0.0274584 0.0274597 0.0277998 0.0278054 0.0274597 0.0274635 0.028147 0.0281556 0.0278054 0.0278121 0.0281556 0.0281641 0.0278121 0.027819 0.0278054 0.0278121 0.0274635 0.0274686 0.0278121 0.027819 0.0274686 0.027474 0.0288545 0.0288651 0.0285092 0.0285184 0.0288651 0.0288742 0.0285184 0.0285264 0.0285092 0.0285184 0.0281641 0.0281719 0.0285184 0.0285264 0.0281719 0.0281788 0.0288742 0.0288818 0.0285264 0.0285331 0.0288818 0.028888 0.0285331 0.0285387 0.0285264 0.0285331 0.0281788 0.0281847 0.0285331 0.0285387 0.0281847 0.0281895 0.0281641 0.0281719 0.027819 0.0278255 0.0281719 0.0281788 0.0278255 0.0278313 0.027819 0.0278255 0.027474 0.0274792 0.0278255 0.0278313 0.0274792 0.027484 0.0281788 0.0281847 0.0278313 0.0278363 0.0281847 0.0281895 0.0278363 0.0278405 0.0278313 0.0278363 0.027484 0.0274881 0.0278363 0.0278405 0.0274881 0.0274916 0.0302873 0.0302938 0.0299371 0.0299432 0.0302938 0.0302987 0.0299432 0.0299479 0.0299371 0.0299432 0.0295871 0.0295929 0.0299432 0.0299479 0.0295929 0.0295974 0.0302987 0.0303023 0.0299479 0.0299514 0.0303023 0.0303049 0.0299514 0.029954 0.0299479 0.0299514 0.0295974 0.0296007 0.0299514 0.029954 0.0296007 0.0296032 0.0295871 0.0295929 0.0292374 0.0292428 0.0295929 0.0295974 0.0292428 0.029247 0.0292374 0.0292428 0.028888 0.0288929 0.0292428 0.029247 0.0288929 0.0288967 0.0295974 0.0296007 0.029247 0.0292501 0.0296007 0.0296032 0.0292501 0.0292524 0.029247 0.0292501 0.0288967 0.0288996 0.0292501 0.0292524 0.0288996 0.0289018 0.0303049 0.0303068 0.029954 0.0299558 0.0303068 0.030308 0.0299558 0.0299571 0.029954 0.0299558 0.0296032 0.0296049 0.0299558 0.0299571 0.0296049 0.0296062 0.030308 0.0303089 0.0299571 0.0299579 0.0303089 0.0303094 0.0299579 0.0299585 0.0299571 0.0299579 0.0296062 0.029607 0.0299579 0.0299585 0.029607 0.0296076 0.0296032 0.0296049 0.0292524 0.0292541 0.0296049 0.0296062 0.0292541 0.0292554 0.0292524 0.0292541 0.0289018 0.0289034 0.0292541 0.0292554 0.0289034 0.0289046 0.0296062 0.029607 0.0292554 0.0292562 0.029607 0.0296076 0.0292562 0.0292567 0.0292554 0.0292562 0.0289046 0.0289054 0.0292562 0.0292567 0.0289054 0.0289059 0.028888 0.0288929 0.0285387 0.0285431 0.0288929 0.0288967 0.0285431 0.0285466 0.0285387 0.0285431 0.0281895 0.0281935 0.0285431 0.0285466 0.0281935 0.0281966 0.0288967 0.0288996 0.0285466 0.0285493 0.0288996 0.0289018 0.0285493 0.0285513 0.0285466 0.0285493 0.0281966 0.028199 0.0285493 0.0285513 0.028199 0.0282008 0.0281895 0.0281935 0.0278405 0.0278439 0.0281935 0.0281966 0.0278439 0.0278467 0.0278405 0.0278439 0.0274916 0.0274945 0.0278439 0.0278467 0.0274945 0.0274969 0.0281966 0.028199 0.0278467 0.0278488 0.028199 0.0282008 0.0278488 0.0278504 0.0278467 0.0278488 0.0274969 0.0274987 0.0278488 0.0278504 0.0274987 0.0275001 0.0289018 0.0289034 0.0285513 0.0285528 0.0289034 0.0289046 0.0285528 0.0285538 0.0285513 0.0285528 0.0282008 0.0282022 0.0285528 0.0285538 0.0282022 0.0282032 0.0289046 0.0289054 0.0285538 0.0285546 0.0289054 0.0289059 0.0285546 0.0285551 0.0285538 0.0285546 0.0282032 0.0282039 0.0285546 0.0285551 0.0282039 0.0282044 0.0282008 0.0282022 0.0278504 0.0278516 0.0282022 0.0282032 0.0278516 0.0278525 0.0278504 0.0278516 0.0275001 0.0275011 0.0278516 0.0278525 0.0275011 0.0275019 0.0282032 0.0282039 0.0278525 0.0278532 0.0282039 0.0282044 0.0278532 0.0278536 0.0278525 0.0278532 0.0275019 0.0275025 0.0278532 0.0278536 0.0275025 0.0275029 0.0274584 0.0274597 0.0271191 0.027119 0.0274597 0.0274635 0.027119 0.0271213 0.0271191 0.027119 0.0267788 0.0267777 0.027119 0.0271213 0.0267777 0.0267788 0.0274635 0.0274686 0.0271213 0.0271249 0.0274686 0.027474 0.0271249 0.0271289 0.0271213 0.0271249 0.0267788 0.026781 0.0271249 0.0271289 0.026781 0.0267837 0.0267788 0.0267777 0.0264375 0.0264358 0.0267777 0.0267788 0.0264358 0.0264358 0.0264375 0.0264358 0.0260953 0.0260932 0.0264358 0.0264358 0.0260932 0.0260924 0.0267788 0.026781 0.0264358 0.0264369 0.026781 0.0267837 0.0264369 0.0264385 0.0264358 0.0264369 0.0260924 0.0260925 0.0264369 0.0264385 0.0260925 0.0260931 0.027474 0.0274792 0.0271289 0.0271329 0.0274792 0.027484 0.0271329 0.0271367 0.0271289 0.0271329 0.0267837 0.0267867 0.0271329 0.0271367 0.0267867 0.0267894 0.027484 0.0274881 0.0271367 0.02714 0.0274881 0.0274916 0.02714 0.0271429 0.0271367 0.02714 0.0267894 0.0267919 0.02714 0.0271429 0.0267919 0.0267941 0.0267837 0.0267867 0.0264385 0.0264403 0.0267867 0.0267894 0.0264403 0.0264422 0.0264385 0.0264403 0.0260931 0.026094 0.0264403 0.0264422 0.026094 0.0260949 0.0267894 0.0267919 0.0264422 0.0264439 0.0267919 0.0267941 0.0264439 0.0264455 0.0264422 0.0264439 0.0260949 0.0260959 0.0264439 0.0264455 0.0260959 0.0260968 0.0260953 0.0260932 0.0257521 0.0257499 0.0260932 0.0260924 0.0257499 0.0257486 0.0257521 0.0257499 0.0254079 0.025406 0.0257499 0.0257486 0.025406 0.0254043 0.0260924 0.0260925 0.0257486 0.0257478 0.0260925 0.0260931 0.0257478 0.0257475 0.0257486 0.0257478 0.0254043 0.0254029 0.0257478 0.0257475 0.0254029 0.0254017 0.0254079 0.025406 0.0250629 0.0250615 0.025406 0.0254043 0.0250615 0.0250596 0.0250629 0.0250615 0.0247171 0.0247163 0.0250615 0.0250596 0.0247163 0.0247144 0.0254043 0.0254029 0.0250596 0.0250576 0.0254029 0.0254017 0.0250576 0.0250557 0.0250596 0.0250576 0.0247144 0.024712 0.0250576 0.0250557 0.024712 0.0247095 0.0260931 0.026094 0.0257475 0.0257475 0.026094 0.0260949 0.0257475 0.0257476 0.0257475 0.0257475 0.0254017 0.0254009 0.0257475 0.0257476 0.0254009 0.0254003 0.0260949 0.0260959 0.0257476 0.0257479 0.0260959 0.0260968 0.0257479 0.0257482 0.0257476 0.0257479 0.0254003 0.0253998 0.0257479 0.0257482 0.0253998 0.0253995 0.0254017 0.0254009 0.0250557 0.0250542 0.0254009 0.0254003 0.0250542 0.0250528 0.0250557 0.0250542 0.0247095 0.0247072 0.0250542 0.0250528 0.0247072 0.0247052 0.0254003 0.0253998 0.0250528 0.0250517 0.0253998 0.0253995 0.0250517 0.0250508 0.0250528 0.0250517 0.0247052 0.0247035 0.0250517 0.0250508 0.0247035 0.0247021 0.0274916 0.0274945 0.0271429 0.0271452 0.0274945 0.0274969 0.0271452 0.0271471 0.0271429 0.0271452 0.0267941 0.026796 0.0271452 0.0271471 0.026796 0.0267975 0.0274969 0.0274987 0.0271471 0.0271486 0.0274987 0.0275001 0.0271486 0.0271498 0.0271471 0.0271486 0.0267975 0.0267987 0.0271486 0.0271498 0.0267987 0.0267996 0.0267941 0.026796 0.0264455 0.0264468 0.026796 0.0267975 0.0264468 0.0264478 0.0264455 0.0264468 0.0260968 0.0260976 0.0264468 0.0264478 0.0260976 0.0260983 0.0267975 0.0267987 0.0264478 0.0264487 0.0267987 0.0267996 0.0264487 0.0264494 0.0264478 0.0264487 0.0260983 0.0260988 0.0264487 0.0264494 0.0260988 0.0260993 0.0275001 0.0275011 0.0271498 0.0271507 0.0275011 0.0275019 0.0271507 0.0271514 0.0271498 0.0271507 0.0267996 0.0268003 0.0271507 0.0271514 0.0268003 0.0268008 0.0275019 0.0275025 0.0271514 0.0271519 0.0275025 0.0275029 0.0271519 0.0271522 0.0271514 0.0271519 0.0268008 0.0268012 0.0271519 0.0271522 0.0268012 0.0268015 0.0267996 0.0268003 0.0264494 0.0264499 0.0268003 0.0268008 0.0264499 0.0264503 0.0264494 0.0264499 0.0260993 0.0260996 0.0264499 0.0264503 0.0260996 0.0260999 0.0268008 0.0268012 0.0264503 0.0264506 0.0268012 0.0268015 0.0264506 0.0264509 0.0264503 0.0264506 0.0260999 0.0261001 0.0264506 0.0264509 0.0261001 0.0261002 0.0260968 0.0260976 0.0257482 0.0257484 0.0260976 0.0260983 0.0257484 0.0257487 0.0257482 0.0257484 0.0253995 0.0253993 0.0257484 0.0257487 0.0253993 0.0253992 0.0260983 0.0260988 0.0257487 0.0257489 0.0260988 0.0260993 0.0257489 0.0257491 0.0257487 0.0257489 0.0253992 0.0253991 0.0257489 0.0257491 0.0253991 0.025399 0.0253995 0.0253993 0.0250508 0.0250502 0.0253993 0.0253992 0.0250502 0.0250496 0.0250508 0.0250502 0.0247021 0.024701 0.0250502 0.0250496 0.024701 0.0247001 0.0253992 0.0253991 0.0250496 0.0250492 0.0253991 0.025399 0.0250492 0.0250489 0.0250496 0.0250492 0.0247001 0.0246994 0.0250492 0.0250489 0.0246994 0.0246988 0.0260993 0.0260996 0.0257491 0.0257493 0.0260996 0.0260999 0.0257493 0.0257494 0.0257491 0.0257493 0.025399 0.025399 0.0257493 0.0257494 0.025399 0.025399 0.0260999 0.0261001 0.0257494 0.0257495 0.0261001 0.0261002 0.0257495 0.0257496 0.0257494 0.0257495 0.025399 0.025399 0.0257495 0.0257496 0.025399 0.025399 0.025399 0.025399 0.0250489 0.0250487 0.025399 0.025399 0.0250487 0.0250486 0.0250489 0.0250487 0.0246988 0.0246984 0.0250487 0.0250486 0.0246984 0.0246981 0.025399 0.025399 0.0250486 0.0250484 0.025399 0.025399 0.0250484 0.0250