# vtk DataFile Version 3.0
#This file was generated by the deal.II library on 2022/1/6 at 21:26:23
ASCII
DATASET UNSTRUCTURED_GRID

POINTS 16384 double
0 0 0
0.1875 0 0
0 0.046875 0
0.1875 0.046875 0
0.1875 0 0
0.375 0 0
0.1875 0.046875 0
0.375 0.046875 0
0 0.046875 0
0.1875 0.046875 0
0 0.09375 0
0.1875 0.09375 0
0.1875 0.046875 0
0.375 0.046875 0
0.1875 0.09375 0
0.375 0.09375 0
0.375 0 0
0.5625 0 0
0.375 0.046875 0
0.5625 0.046875 0
0.5625 0 0
0.75 0 0
0.5625 0.046875 0
0.75 0.046875 0
0.375 0.046875 0
0.5625 0.046875 0
0.375 0.09375 0
0.5625 0.09375 0
0.5625 0.046875 0
0.75 0.046875 0
0.5625 0.09375 0
0.75 0.09375 0
0 0.09375 0
0.1875 0.09375 0
0 0.140625 0
0.1875 0.140625 0
0.1875 0.09375 0
0.375 0.09375 0
0.1875 0.140625 0
0.375 0.140625 0
0 0.140625 0
0.1875 0.140625 0
0 0.1875 0
0.1875 0.1875 0
0.1875 0.140625 0
0.375 0.140625 0
0.1875 0.1875 0
0.375 0.1875 0
0.375 0.09375 0
0.5625 0.09375 0
0.375 0.140625 0
0.5625 0.140625 0
0.5625 0.09375 0
0.75 0.09375 0
0.5625 0.140625 0
0.75 0.140625 0
0.375 0.140625 0
0.5625 0.140625 0
0.375 0.1875 0
0.5625 0.1875 0
0.5625 0.140625 0
0.75 0.140625 0
0.5625 0.1875 0
0.75 0.1875 0
0.75 0 0
0.9375 0 0
0.75 0.046875 0
0.9375 0.046875 0
0.9375 0 0
1.125 0 0
0.9375 0.046875 0
1.125 0.046875 0
0.75 0.046875 0
0.9375 0.046875 0
0.75 0.09375 0
0.9375 0.09375 0
0.9375 0.046875 0
1.125 0.046875 0
0.9375 0.09375 0
1.125 0.09375 0
1.125 0 0
1.3125 0 0
1.125 0.046875 0
1.3125 0.046875 0
1.3125 0 0
1.5 0 0
1.3125 0.046875 0
1.5 0.046875 0
1.125 0.046875 0
1.3125 0.046875 0
1.125 0.09375 0
1.3125 0.09375 0
1.3125 0.046875 0
1.5 0.046875 0
1.3125 0.09375 0
1.5 0.09375 0
0.75 0.09375 0
0.9375 0.09375 0
0.75 0.140625 0
0.9375 0.140625 0
0.9375 0.09375 0
1.125 0.09375 0
0.9375 0.140625 0
1.125 0.140625 0
0.75 0.140625 0
0.9375 0.140625 0
0.75 0.1875 0
0.9375 0.1875 0
0.9375 0.140625 0
1.125 0.140625 0
0.9375 0.1875 0
1.125 0.1875 0
1.125 0.09375 0
1.3125 0.09375 0
1.125 0.140625 0
1.3125 0.140625 0
1.3125 0.09375 0
1.5 0.09375 0
1.3125 0.140625 0
1.5 0.140625 0
1.125 0.140625 0
1.3125 0.140625 0
1.125 0.1875 0
1.3125 0.1875 0
1.3125 0.140625 0
1.5 0.140625 0
1.3125 0.1875 0
1.5 0.1875 0
0 0.1875 0
0.1875 0.1875 0
0 0.234375 0
0.1875 0.234375 0
0.1875 0.1875 0
0.375 0.1875 0
0.1875 0.234375 0
0.375 0.234375 0
0 0.234375 0
0.1875 0.234375 0
0 0.28125 0
0.1875 0.28125 0
0.1875 0.234375 0
0.375 0.234375 0
0.1875 0.28125 0
0.375 0.28125 0
0.375 0.1875 0
0.5625 0.1875 0
0.375 0.234375 0
0.5625 0.234375 0
0.5625 0.1875 0
0.75 0.1875 0
0.5625 0.234375 0
0.75 0.234375 0
0.375 0.234375 0
0.5625 0.234375 0
0.375 0.28125 0
0.5625 0.28125 0
0.5625 0.234375 0
0.75 0.234375 0
0.5625 0.28125 0
0.75 0.28125 0
0 0.28125 0
0.1875 0.28125 0
0 0.328125 0
0.1875 0.328125 0
0.1875 0.28125 0
0.375 0.28125 0
0.1875 0.328125 0
0.375 0.328125 0
0 0.328125 0
0.1875 0.328125 0
0 0.375 0
0.1875 0.375 0
0.1875 0.328125 0
0.375 0.328125 0
0.1875 0.375 0
0.375 0.375 0
0.375 0.28125 0
0.5625 0.28125 0
0.375 0.328125 0
0.5625 0.328125 0
0.5625 0.28125 0
0.75 0.28125 0
0.5625 0.328125 0
0.75 0.328125 0
0.375 0.328125 0
0.5625 0.328125 0
0.375 0.375 0
0.5625 0.375 0
0.5625 0.328125 0
0.75 0.328125 0
0.5625 0.375 0
0.75 0.375 0
0.75 0.1875 0
0.9375 0.1875 0
0.75 0.234375 0
0.9375 0.234375 0
0.9375 0.1875 0
1.125 0.1875 0
0.9375 0.234375 0
1.125 0.234375 0
0.75 0.234375 0
0.9375 0.234375 0
0.75 0.28125 0
0.9375 0.28125 0
0.9375 0.234375 0
1.125 0.234375 0
0.9375 0.28125 0
1.125 0.28125 0
1.125 0.1875 0
1.3125 0.1875 0
1.125 0.234375 0
1.3125 0.234375 0
1.3125 0.1875 0
1.5 0.1875 0
1.3125 0.234375 0
1.5 0.234375 0
1.125 0.234375 0
1.3125 0.234375 0
1.125 0.28125 0
1.3125 0.28125 0
1.3125 0.234375 0
1.5 0.234375 0
1.3125 0.28125 0
1.5 0.28125 0
0.75 0.28125 0
0.9375 0.28125 0
0.75 0.328125 0
0.9375 0.328125 0
0.9375 0.28125 0
1.125 0.28125 0
0.9375 0.328125 0
1.125 0.328125 0
0.75 0.328125 0
0.9375 0.328125 0
0.75 0.375 0
0.9375 0.375 0
0.9375 0.328125 0
1.125 0.328125 0
0.9375 0.375 0
1.125 0.375 0
1.125 0.28125 0
1.3125 0.28125 0
1.125 0.328125 0
1.3125 0.328125 0
1.3125 0.28125 0
1.5 0.28125 0
1.3125 0.328125 0
1.5 0.328125 0
1.125 0.328125 0
1.3125 0.328125 0
1.125 0.375 0
1.3125 0.375 0
1.3125 0.328125 0
1.5 0.328125 0
1.3125 0.375 0
1.5 0.375 0
1.5 0 0
1.6875 0 0
1.5 0.046875 0
1.6875 0.046875 0
1.6875 0 0
1.875 0 0
1.6875 0.046875 0
1.875 0.046875 0
1.5 0.046875 0
1.6875 0.046875 0
1.5 0.09375 0
1.6875 0.09375 0
1.6875 0.046875 0
1.875 0.046875 0
1.6875 0.09375 0
1.875 0.09375 0
1.875 0 0
2.0625 0 0
1.875 0.046875 0
2.0625 0.046875 0
2.0625 0 0
2.25 0 0
2.0625 0.046875 0
2.25 0.046875 0
1.875 0.046875 0
2.0625 0.046875 0
1.875 0.09375 0
2.0625 0.09375 0
2.0625 0.046875 0
2.25 0.046875 0
2.0625 0.09375 0
2.25 0.09375 0
1.5 0.09375 0
1.6875 0.09375 0
1.5 0.140625 0
1.6875 0.140625 0
1.6875 0.09375 0
1.875 0.09375 0
1.6875 0.140625 0
1.875 0.140625 0
1.5 0.140625 0
1.6875 0.140625 0
1.5 0.1875 0
1.6875 0.1875 0
1.6875 0.140625 0
1.875 0.140625 0
1.6875 0.1875 0
1.875 0.1875 0
1.875 0.09375 0
2.0625 0.09375 0
1.875 0.140625 0
2.0625 0.140625 0
2.0625 0.09375 0
2.25 0.09375 0
2.0625 0.140625 0
2.25 0.140625 0
1.875 0.140625 0
2.0625 0.140625 0
1.875 0.1875 0
2.0625 0.1875 0
2.0625 0.140625 0
2.25 0.140625 0
2.0625 0.1875 0
2.25 0.1875 0
2.25 0 0
2.4375 0 0
2.25 0.046875 0
2.4375 0.046875 0
2.4375 0 0
2.625 0 0
2.4375 0.046875 0
2.625 0.046875 0
2.25 0.046875 0
2.4375 0.046875 0
2.25 0.09375 0
2.4375 0.09375 0
2.4375 0.046875 0
2.625 0.046875 0
2.4375 0.09375 0
2.625 0.09375 0
2.625 0 0
2.8125 0 0
2.625 0.046875 0
2.8125 0.046875 0
2.8125 0 0
3 0 0
2.8125 0.046875 0
3 0.046875 0
2.625 0.046875 0
2.8125 0.046875 0
2.625 0.09375 0
2.8125 0.09375 0
2.8125 0.046875 0
3 0.046875 0
2.8125 0.09375 0
3 0.09375 0
2.25 0.09375 0
2.4375 0.09375 0
2.25 0.140625 0
2.4375 0.140625 0
2.4375 0.09375 0
2.625 0.09375 0
2.4375 0.140625 0
2.625 0.140625 0
2.25 0.140625 0
2.4375 0.140625 0
2.25 0.1875 0
2.4375 0.1875 0
2.4375 0.140625 0
2.625 0.140625 0
2.4375 0.1875 0
2.625 0.1875 0
2.625 0.09375 0
2.8125 0.09375 0
2.625 0.140625 0
2.8125 0.140625 0
2.8125 0.09375 0
3 0.09375 0
2.8125 0.140625 0
3 0.140625 0
2.625 0.140625 0
2.8125 0.140625 0
2.625 0.1875 0
2.8125 0.1875 0
2.8125 0.140625 0
3 0.140625 0
2.8125 0.1875 0
3 0.1875 0
1.5 0.1875 0
1.6875 0.1875 0
1.5 0.234375 0
1.6875 0.234375 0
1.6875 0.1875 0
1.875 0.1875 0
1.6875 0.234375 0
1.875 0.234375 0
1.5 0.234375 0
1.6875 0.234375 0
1.5 0.28125 0
1.6875 0.28125 0
1.6875 0.234375 0
1.875 0.234375 0
1.6875 0.28125 0
1.875 0.28125 0
1.875 0.1875 0
2.0625 0.1875 0
1.875 0.234375 0
2.0625 0.234375 0
2.0625 0.1875 0
2.25 0.1875 0
2.0625 0.234375 0
2.25 0.234375 0
1.875 0.234375 0
2.0625 0.234375 0
1.875 0.28125 0
2.0625 0.28125 0
2.0625 0.234375 0
2.25 0.234375 0
2.0625 0.28125 0
2.25 0.28125 0
1.5 0.28125 0
1.6875 0.28125 0
1.5 0.328125 0
1.6875 0.328125 0
1.6875 0.28125 0
1.875 0.28125 0
1.6875 0.328125 0
1.875 0.328125 0
1.5 0.328125 0
1.6875 0.328125 0
1.5 0.375 0
1.6875 0.375 0
1.6875 0.328125 0
1.875 0.328125 0
1.6875 0.375 0
1.875 0.375 0
1.875 0.28125 0
2.0625 0.28125 0
1.875 0.328125 0
2.0625 0.328125 0
2.0625 0.28125 0
2.25 0.28125 0
2.0625 0.328125 0
2.25 0.328125 0
1.875 0.328125 0
2.0625 0.328125 0
1.875 0.375 0
2.0625 0.375 0
2.0625 0.328125 0
2.25 0.328125 0
2.0625 0.375 0
2.25 0.375 0
2.25 0.1875 0
2.4375 0.1875 0
2.25 0.234375 0
2.4375 0.234375 0
2.4375 0.1875 0
2.625 0.1875 0
2.4375 0.234375 0
2.625 0.234375 0
2.25 0.234375 0
2.4375 0.234375 0
2.25 0.28125 0
2.4375 0.28125 0
2.4375 0.234375 0
2.625 0.234375 0
2.4375 0.28125 0
2.625 0.28125 0
2.625 0.1875 0
2.8125 0.1875 0
2.625 0.234375 0
2.8125 0.234375 0
2.8125 0.1875 0
3 0.1875 0
2.8125 0.234375 0
3 0.234375 0
2.625 0.234375 0
2.8125 0.234375 0
2.625 0.28125 0
2.8125 0.28125 0
2.8125 0.234375 0
3 0.234375 0
2.8125 0.28125 0
3 0.28125 0
2.25 0.28125 0
2.4375 0.28125 0
2.25 0.328125 0
2.4375 0.328125 0
2.4375 0.28125 0
2.625 0.28125 0
2.4375 0.328125 0
2.625 0.328125 0
2.25 0.328125 0
2.4375 0.328125 0
2.25 0.375 0
2.4375 0.375 0
2.4375 0.328125 0
2.625 0.328125 0
2.4375 0.375 0
2.625 0.375 0
2.625 0.28125 0
2.8125 0.28125 0
2.625 0.328125 0
2.8125 0.328125 0
2.8125 0.28125 0
3 0.28125 0
2.8125 0.328125 0
3 0.328125 0
2.625 0.328125 0
2.8125 0.328125 0
2.625 0.375 0
2.8125 0.375 0
2.8125 0.328125 0
3 0.328125 0
2.8125 0.375 0
3 0.375 0
0 0.375 0
0.1875 0.375 0
0 0.421875 0
0.1875 0.421875 0
0.1875 0.375 0
0.375 0.375 0
0.1875 0.421875 0
0.375 0.421875 0
0 0.421875 0
0.1875 0.421875 0
0 0.46875 0
0.1875 0.46875 0
0.1875 0.421875 0
0.375 0.421875 0
0.1875 0.46875 0
0.375 0.46875 0
0.375 0.375 0
0.5625 0.375 0
0.375 0.421875 0
0.5625 0.421875 0
0.5625 0.375 0
0.75 0.375 0
0.5625 0.421875 0
0.75 0.421875 0
0.375 0.421875 0
0.5625 0.421875 0
0.375 0.46875 0
0.5625 0.46875 0
0.5625 0.421875 0
0.75 0.421875 0
0.5625 0.46875 0
0.75 0.46875 0
0 0.46875 0
0.1875 0.46875 0
0 0.515625 0
0.1875 0.515625 0
0.1875 0.46875 0
0.375 0.46875 0
0.1875 0.515625 0
0.375 0.515625 0
0 0.515625 0
0.1875 0.515625 0
0 0.5625 0
0.1875 0.5625 0
0.1875 0.515625 0
0.375 0.515625 0
0.1875 0.5625 0
0.375 0.5625 0
0.375 0.46875 0
0.5625 0.46875 0
0.375 0.515625 0
0.5625 0.515625 0
0.5625 0.46875 0
0.75 0.46875 0
0.5625 0.515625 0
0.75 0.515625 0
0.375 0.515625 0
0.5625 0.515625 0
0.375 0.5625 0
0.5625 0.5625 0
0.5625 0.515625 0
0.75 0.515625 0
0.5625 0.5625 0
0.75 0.5625 0
0.75 0.375 0
0.9375 0.375 0
0.75 0.421875 0
0.9375 0.421875 0
0.9375 0.375 0
1.125 0.375 0
0.9375 0.421875 0
1.125 0.421875 0
0.75 0.421875 0
0.9375 0.421875 0
0.75 0.46875 0
0.9375 0.46875 0
0.9375 0.421875 0
1.125 0.421875 0
0.9375 0.46875 0
1.125 0.46875 0
1.125 0.375 0
1.3125 0.375 0
1.125 0.421875 0
1.3125 0.421875 0
1.3125 0.375 0
1.5 0.375 0
1.3125 0.421875 0
1.5 0.421875 0
1.125 0.421875 0
1.3125 0.421875 0
1.125 0.46875 0
1.3125 0.46875 0
1.3125 0.421875 0
1.5 0.421875 0
1.3125 0.46875 0
1.5 0.46875 0
0.75 0.46875 0
0.9375 0.46875 0
0.75 0.515625 0
0.9375 0.515625 0
0.9375 0.46875 0
1.125 0.46875 0
0.9375 0.515625 0
1.125 0.515625 0
0.75 0.515625 0
0.9375 0.515625 0
[...]
POINT_DATA 16384
SCALARS x_displacement double 1
LOOKUP_TABLE default
0 0.0228566 0 0.0212689 0.0228566 0.0341661 0.0212689 0.034565 0 0.0212689 0 0.020092 0.0212689 0.034565 0.020092 0.0333937 0.0341661 0.0387436 0.034565 0.0381697 0.0387436 0.0346834 0.0381697 0.0341105 0.034565 0.0381697 0.0333937 0.0369847 0.0381697 0.0341105 0.0369847 0.0331499 0 0.020092 0 0.0189162 0.020092 0.0333937 0.0189162 0.031022 0 0.0189162 0 0.017777 0.0189162 0.031022 0.017777 0.0282434 0.0333937 0.0369847 0.031022 0.0349701 0.0369847 0.0331499 0.0349701 0.0318287 0.031022 0.0349701 0.0282434 0.0319347 0.0349701 0.0318287 0.0319347 0.0302503 0.0346834 0.0311832 0.0341105 0.0307701 0.0311832 0.0291026 0.0307701 0.0288328 0.0341105 0.0307701 0.0331499 0.0301858 0.0307701 0.0288328 0.0301858 0.0284493 0.0291026 0.0279307 0.0288328 0.0276826 0.0279307 0.0272436 0.0276826 0.0269917 0.0288328 0.0276826 0.0284493 0.0273717 0.0276826 0.0269917 0.0273717 0.0267015 0.0331499 0.0301858 0.0318287 0.0294549 0.0301858 0.0284493 0.0294549 0.0279706 0.0318287 0.0294549 0.0302503 0.0286134 0.0294549 0.0279706 0.0286134 0.0274081 0.0284493 0.0273717 0.0279706 0.0270004 0.0273717 0.0267015 0.0270004 0.0263749 0.0279706 0.0270004 0.0274081 0.0265762 0.0270004 0.0263749 0.0265762 0.0260139 0 0.017777 0 0.0167065 0.017777 0.0282434 0.0167065 0.0254299 0 0.0167065 0 0.0156839 0.0167065 0.0254299 0.0156839 0.0231346 0.0282434 0.0319347 0.0254299 0.0287391 0.0319347 0.0302503 0.0287391 0.0286282 0.0254299 0.0287391 0.0231346 0.0261827 0.0287391 0.0286282 0.0261827 0.0269838 0 0.0156839 0 0.0147773 0.0156839 0.0231346 0.0147773 0.0212708 0 0.0147773 0 0.0140038 0.0147773 0.0212708 0.0140038 0.0197541 0.0231346 0.0261827 0.0212708 0.0241318 0.0261827 0.0269838 0.0241318 0.0254344 0.0212708 0.0241318 0.0197541 0.0224406 0.0241318 0.0254344 0.0224406 0.0240243 0.0302503 0.0286134 0.0286282 0.0276725 0.0286134 0.0274081 0.0276725 0.0267812 0.0286282 0.0276725 0.0269838 0.0266784 0.0276725 0.0267812 0.0266784 0.0261035 0.0274081 0.0265762 0.0267812 0.0261054 0.0265762 0.0260139 0.0261054 0.0256218 0.0267812 0.0261054 0.0261035 0.0255962 0.0261054 0.0256218 0.0255962 0.025202 0.0269838 0.0266784 0.0254344 0.0256549 0.0266784 0.0261035 0.0256549 0.025392 0.0254344 0.0256549 0.0240243 0.0246362 0.0256549 0.025392 0.0246362 0.0246597 0.0261035 0.0255962 0.025392 0.0250561 0.0255962 0.025202 0.0250561 0.0247589 0.025392 0.0250561 0.0246597 0.0244934 0.0250561 0.0247589 0.0244934 0.0242964 0.0272436 0.0268393 0.0269917 0.0265757 0.0268393 0.0266071 0.0265757 0.0263296 0.0269917 0.0265757 0.0267015 0.0262883 0.0265757 0.0263296 0.0262883 0.0260371 0.0266071 0.0264809 0.0263296 0.0261901 0.0264809 0.0264203 0.0261901 0.0261176 0.0263296 0.0261901 0.0260371 0.0258899 0.0261901 0.0261176 0.0258899 0.025809 0.0267015 0.0262883 0.0263749 0.0259775 0.0262883 0.0260371 0.0259775 0.0257298 0.0263749 0.0259775 0.0260139 0.0256447 0.0259775 0.0257298 0.0256447 0.025408 0.0260371 0.0258899 0.0257298 0.0255801 0.0258899 0.025809 0.0255801 0.0254945 0.0257298 0.0255801 0.025408 0.025261 0.0255801 0.0254945 0.025261 0.0251738 0.0264203 0.0263995 0.0261176 0.0260866 0.0263995 0.0264022 0.0260866 0.0260808 0.0261176 0.0260866 0.025809 0.0257702 0.0260866 0.0260808 0.0257702 0.0257574 0.0264022 0.0264178 0.0260808 0.0260894 0.0264178 0.0264394 0.0260894 0.0261055 0.0260808 0.0260894 0.0257574 0.0257601 0.0260894 0.0261055 0.0257601 0.0257712 0.025809 0.0257702 0.0254945 0.0254501 0.0257702 0.0257574 0.0254501 0.0254318 0.0254945 0.0254501 0.0251738 0.0251261 0.0254501 0.0254318 0.0251261 0.0251039 0.0257574 0.0257601 0.0254318 0.0254295 0.0257601 0.0257712 0.0254295 0.0254364 0.0254318 0.0254295 0.0251039 0.0250976 0.0254295 0.0254364 0.0250976 0.0251008 0.0260139 0.0256447 0.0256218 0.025291 0.0256447 0.025408 0.025291 0.0250724 0.0256218 0.025291 0.025202 0.0249183 0.025291 0.0250724 0.0249183 0.0247238 0.025408 0.025261 0.0250724 0.0249326 0.025261 0.0251738 0.0249326 0.0248471 0.0250724 0.0249326 0.0247238 0.0245955 0.0249326 0.0248471 0.0245955 0.0245146 0.025202 0.0249183 0.0247589 0.0245287 0.0249183 0.0247238 0.0245287 0.0243632 0.0247589 0.0245287 0.0242964 0.0241244 0.0245287 0.0243632 0.0241244 0.0239919 0.0247238 0.0245955 0.0243632 0.0242501 0.0245955 0.0245146 0.0242501 0.0241764 0.0243632 0.0242501 0.0239919 0.0238971 0.0242501 0.0241764 0.0238971 0.0238329 0.0251738 0.0251261 0.0248471 0.0247983 0.0251261 0.0251039 0.0247983 0.0247736 0.0248471 0.0247983 0.0245146 0.0244666 0.0247983 0.0247736 0.0244666 0.0244407 0.0251039 0.0250976 0.0247736 0.0247643 0.0250976 0.0251008 0.0247643 0.0247645 0.0247736 0.0247643 0.0244407 0.0244294 0.0247643 0.0247645 0.0244294 0.0244272 0.0245146 0.0244666 0.0241764 0.024131 0.0244666 0.0244407 0.024131 0.0241054 0.0241764 0.024131 0.0238329 0.0237919 0.024131 0.0241054 0.0237919 0.0237676 0.0244407 0.0244294 0.0241054 0.0240929 0.0244294 0.0244272 0.0240929 0.0240891 0.0241054 0.0240929 0.0237676 0.0237549 0.0240929 0.0240891 0.0237549 0.0237499 0 0.0140038 0 0.0133567 0.0140038 0.0197541 0.0133567 0.0185138 0 0.0133567 0 0.01282 0.0133567 0.0185138 0.01282 0.0174938 0.0197541 0.0224406 0.0185138 0.0210243 0.0224406 0.0240243 0.0210243 0.0227574 0.0185138 0.0210243 0.0174938 0.0198264 0.0210243 0.0227574 0.0198264 0.021625 0 0.01282 0 0.0123757 0.01282 0.0174938 0.0123757 0.0166501 0 0.0123757 0 0.012007 0.0123757 0.0166501 0.012007 0.0159478 0.0174938 0.0198264 0.0166501 0.0188061 0.0198264 0.021625 0.0188061 0.0206148 0.0166501 0.0188061 0.0159478 0.017932 0.0188061 0.0206148 0.017932 0.0197141 0.0240243 0.0246362 0.0227574 0.0236492 0.0246362 0.0246597 0.0236492 0.0239197 0.0227574 0.0236492 0.021625 0.0227103 0.0236492 0.0239197 0.0227103 0.0231843 0.0246597 0.0244934 0.0239197 0.0239157 0.0244934 0.0242964 0.0239157 0.023819 0.0239197 0.0239157 0.0231843 0.0233298 0.0239157 0.023819 0.0233298 0.0233308 0.021625 0.0227103 0.0206148 0.0218279 0.0227103 0.0231843 0.0218279 0.0224635 0.0206148 0.0218279 0.0197141 0.021005 0.0218279 0.0224635 0.021005 0.0217648 0.0231843 0.0233298 0.0224635 0.0227421 0.0233298 0.0233308 0.0227421 0.0228358 0.0224635 0.0227421 0.0217648 0.0221581 0.0227421 0.0228358 0.0221581 0.0223376 0 0.012007 0 0.0116998 0.012007 0.0159478 0.0116998 0.0153595 0 0.0116998 0 0.011442 0.0116998 0.0153595 0.011442 0.0148632 0.0159478 0.017932 0.0153595 0.0171792 0.017932 0.0197141 0.0171792 0.0189103 0.0153595 0.0171792 0.0148632 0.0165278 0.0171792 0.0189103 0.0165278 0.0181923 0 0.011442 0 0.0112243 0.011442 0.0148632 0.0112243 0.0144416 0 0.0112243 0 0.011039 0.0112243 0.0144416 0.011039 0.0140808 0.0148632 0.0165278 0.0144416 0.0159611 0.0165278 0.0181923 0.0159611 0.0175496 0.0144416 0.0159611 0.0140808 0.0154658 0.0159611 0.0175496 0.0154658 0.0169732 0.0197141 0.021005 0.0189103 0.0202416 0.021005 0.0217648 0.0202416 0.0210932 0.0189103 0.0202416 0.0181923 0.0195359 0.0202416 0.0210932 0.0195359 0.0204519 0.0217648 0.0221581 0.0210932 0.0215827 0.0221581 0.0223376 0.0215827 0.0218397 0.0210932 0.0215827 0.0204519 0.0210196 0.0215827 0.0218397 0.0210196 0.0213448 0.0181923 0.0195359 0.0175496 0.0188846 0.0195359 0.0204519 0.0188846 0.0198424 0.0175496 0.0188846 0.0169732 0.0182843 0.0188846 0.0198424 0.0182843 0.0192651 0.0204519 0.0210196 0.0198424 0.0204716 0.0210196 0.0213448 0.0204716 0.0208557 0.0198424 0.0204716 0.0192651 0.0199409 0.0204716 0.0208557 0.0199409 0.0203742 0.0242964 0.0241244 0.023819 0.0237077 0.0241244 0.0239919 0.0237077 0.0236112 0.023819 0.0237077 0.0233308 0.0232811 0.0237077 0.0236112 0.0232811 0.0232225 0.0239919 0.0238971 0.0236112 0.0235371 0.0238971 0.0238329 0.0235371 0.0234844 0.0236112 0.0235371 0.0232225 0.023171 0.0235371 0.0234844 0.023171 0.0231314 0.0233308 0.0232811 0.0228358 0.022847 0.0232811 0.0232225 0.022847 0.0228271 0.0228358 0.022847 0.0223376 0.0224078 0.022847 0.0228271 0.0224078 0.0224266 0.0232225 0.023171 0.0228271 0.0227996 0.023171 0.0231314 0.0227996 0.0227743 0.0228271 0.0227996 0.0224266 0.0224238 0.0227996 0.0227743 0.0224238 0.0224138 0.0238329 0.0237919 0.0234844 0.0234492 0.0237919 0.0237676 0.0234492 0.0234274 0.0234844 0.0234492 0.0231314 0.0231034 0.0234492 0.0234274 0.0231034 0.023085 0.0237676 0.0237549 0.0234274 0.0234153 0.0237549 0.0237499 0.0234153 0.0234097 0.0234274 0.0234153 0.023085 0.0230741 0.0234153 0.0234097 0.0230741 0.0230684 0.0231314 0.0231034 0.0227743 0.0227545 0.0231034 0.023085 0.0227545 0.0227404 0.0227743 0.0227545 0.0224138 0.0224029 0.0227545 0.0227404 0.0224029 0.0223939 0.023085 0.0230741 0.0227404 0.0227314 0.0230741 0.0230684 0.0227314 0.0227262 0.0227404 0.0227314 0.0223939 0.0223873 0.0227314 0.0227262 0.0223873 0.0223829 0.0223376 0.0224078 0.0218397 0.0219656 0.0224078 0.0224266 0.0219656 0.0220224 0.0218397 0.0219656 0.0213448 0.0215225 0.0219656 0.0220224 0.0215225 0.0216157 0.0224266 0.0224238 0.0220224 0.0220444 0.0224238 0.0224138 0.0220444 0.0220502 0.0220224 0.0220444 0.0216157 0.0216624 0.0220444 0.0220502 0.0216624 0.0216842 0.0213448 0.0215225 0.0208557 0.0210803 0.0215225 0.0216157 0.0210803 0.021208 0.0208557 0.0210803 0.0203742 0.0206407 0.0210803 0.021208 0.0206407 0.0208002 0.0216157 0.0216624 0.021208 0.0212785 0.0216624 0.0216842 0.0212785 0.0213162 0.021208 0.0212785 0.0208002 0.0208936 0.0212785 0.0213162 0.0208936 0.0209469 0.0224138 0.0224029 0.0220502 0.022049 0.0224029 0.0223939 0.022049 0.0220455 0.0220502 0.022049 0.0216842 0.021693 0.022049 0.0220455 0.021693 0.0216955 0.0223939 0.0223873 0.0220455 0.0220418 0.0223873 0.0223829 0.0220418 0.0220387 0.0220455 0.0220418 0.0216955 0.0216951 0.0220418 0.0220387 0.0216951 0.0216935 0.0216842 0.021693 0.0213162 0.0213353 0.021693 0.0216955 0.0213353 0.0213441 0.0213162 0.0213353 0.0209469 0.0209763 0.0213353 0.0213441 0.0209763 0.0209915 0.0216955 0.0216951 0.0213441 0.0213473 0.0216951 0.0216935 0.0213473 0.0213475 0.0213441 0.0213473 0.0209915 0.0209984 0.0213473 0.0213475 0.0209984 0.0210007 0.0264394 0.026463 0.0261055 0.0261247 0.026463 0.026486 0.0261247 0.0261443 0.0261055 0.0261247 0.0257712 0.0257864 0.0261247 0.0261443 0.0257864 0.0258028 0.026486 0.0265071 0.0261443 0.0261628 0.0265071 0.0265255 0.0261628 0.0261793 0.0261443 0.0261628 0.0258028 0.0258188 0.0261628 0.0261793 0.0258188 0.0258333 0.0257712 0.0257864 0.0254364 0.0254479 0.0257864 0.0258028 0.0254479 0.0254614 0.0254364 0.0254479 0.0251008 0.0251092 0.0254479 0.0254614 0.0251092 0.0251199 0.0258028 0.0258188 0.0254614 0.025475 0.0258188 0.0258333 0.025475 0.0254877 0.0254614 0.025475 0.0251199 0.0251313 0.025475 0.0254877 0.0251313 0.0251422 0.0265255 0.0265412 0.0261793 0.0261935 0.0265412 0.0265541 0.0261935 0.0262053 0.0261793 0.0261935 0.0258333 0.0258461 0.0261935 0.0262053 0.0258461 0.0258568 0.0265541 0.0265646 0.0262053 0.026215 0.0265646 0.0265728 0.026215 0.0262227 0.0262053 0.026215 0.0258568 0.0258657 0.026215 0.0262227 0.0258657 0.0258729 0.0258333 0.0258461 0.0254877 0.025499 0.0258461 0.0258568 0.025499 0.0255086 0.0254877 0.025499 0.0251422 0.0251521 0.025499 0.0255086 0.0251521 0.0251607 0.0258568 0.0258657 0.0255086 0.0255167 0.0258657 0.0258729 0.0255167 0.0255233 0.0255086 0.0255167 0.0251607 0.0251679 0.0255167 0.0255233 0.0251679 0.0251738 0.0251008 0.0251092 0.0247645 0.0247701 0.0251092 0.0251199 0.0247701 0.0247784 0.0247645 0.0247701 0.0244272 0.0244305 0.0247701 0.0247784 0.0244305 0.0244367 0.0251199 0.0251313 0.0247784 0.0247877 0.0251313 0.0251422 0.0247877 0.0247969 0.0247784 0.0247877 0.0244367 0.0244441 0.0247877 0.0247969 0.0244441 0.0244517 0.0244272 0.0244305 0.0240891 0.0240904 0.0244305 0.0244367 0.0240904 0.0240947 0.0240891 0.0240904 0.0237499 0.0237497 0.0240904 0.0240947 0.0237497 0.0237524 0.0244367 0.0244441 0.0240947 0.0241004 0.0244441 0.0244517 0.0241004 0.0241065 0.0240947 0.0241004 0.0237524 0.0237565 0.0241004 0.0241065 0.0237565 0.0237612 0.0251422 0.0251521 0.0247969 0.0248054 0.0251521 0.0251607 0.0248054 0.0248129 0.0247969 0.0248054 0.0244517 0.0244588 0.0248054 0.0248129 0.0244588 0.0244653 0.0251607 0.0251679 0.0248129 0.0248193 0.0251679 0.0251738 0.0248193 0.0248246 0.0248129 0.0248193 0.0244653 0.0244708 0.0248193 0.0248246 0.0244708 0.0244755 0.0244517 0.0244588 0.0241065 0.0241124 0.0244588 0.0244653 0.0241124 0.0241178 0.0241065 0.0241124 0.0237612 0.023766 0.0241124 0.0241178 0.023766 0.0237704 0.0244653 0.0244708 0.0241178 0.0241225 0.0244708 0.0244755 0.0241225 0.0241265 0.0241178 0.0241225 0.0237704 0.0237743 0.0241225 0.0241265 0.0237743 0.0237776 0.0265728 0.0265792 0.0262227 0.0262288 0.0265792 0.0265841 0.0262288 0.0262334 0.0262227 0.0262288 0.0258729 0.0258785 0.0262288 0.0262334 0.0258785 0.0258829 0.0265841 0.0265877 0.0262334 0.0262369 0.0265877 0.0265904 0.0262369 0.0262395 0.0262334 0.0262369 0.0258829 0.0258862 0.0262369 0.0262395 0.0258862 0.0258887 0.0258729 0.0258785 0.0255233 0.0255285 0.0258785 0.0258829 0.0255285 0.0255326 0.0255233 0.0255285 0.0251738 0.0251786 0.0255285 0.0255326 0.0251786 0.0251823 0.0258829 0.0258862 0.0255326 0.0255357 0.0258862 0.0258887 0.0255357 0.025538 0.0255326 0.0255357 0.0251823 0.0251852 0.0255357 0.025538 0.0251852 0.0251874 0.0265904 0.0265922 0.0262395 0.0262413 0.0265922 0.0265936 0.0262413 0.0262426 0.0262395 0.0262413 0.0258887 0.0258905 0.0262413 0.0262426 0.0258905 0.0258918 0.0265936 0.0265944 0.0262426 0.0262435 0.0265944 0.026595 0.0262435 0.0262441 0.0262426 0.0262435 0.0258918 0.0258926 0.0262435 0.0262441 0.0258926 0.0258932 0.0258887 0.0258905 0.025538 0.0255397 0.0258905 0.0258918 0.0255397 0.0255409 0.025538 0.0255397 0.0251874 0.025189 0.0255397 0.0255409 0.025189 0.0251902 0.0258918 0.0258926 0.0255409 0.0255418 0.0258926 0.0258932 0.0255418 0.0255424 0.0255409 0.0255418 0.0251902 0.025191 0.0255418 0.0255424 0.025191 0.0251916 0.0251738 0.0251786 0.0248246 0.0248289 0.0251786 0.0251823 0.0248289 0.0248323 0.0248246 0.0248289 0.0244755 0.0244793 0.0248289 0.0248323 0.0244793 0.0244823 0.0251823 0.0251852 0.0248323 0.0248349 0.0251852 0.0251874 0.0248349 0.0248369 0.0248323 0.0248349 0.0244823 0.0244846 0.0248349 0.0248369 0.0244846 0.0244865 0.0244755 0.0244793 0.0241265 0.0241298 0.0244793 0.0244823 0.0241298 0.0241324 0.0241265 0.0241298 0.0237776 0.0237804 0.0241298 0.0241324 0.0237804 0.0237826 0.0244823 0.0244846 0.0241324 0.0241345 0.0244846 0.0244865 0.0241345 0.0241361 0.0241324 0.0241345 0.0237826 0.0237844 0.0241345 0.0241361 0.0237844 0.0237858 0.0251874 0.025189 0.0248369 0.0248384 0.025189 0.0251902 0.0248384 0.0248395 0.0248369 0.0248384 0.0244865 0.0244878 0.0248384 0.0248395 0.0244878 0.0244888 0.0251902 0.025191 0.0248395 0.0248402 0.025191 0.0251916 0.0248402 0.0248408 0.0248395 0.0248402 0.0244888 0.0244895 0.0248402 0.0248408 0.0244895 0.02449 0.0244865 0.0244878 0.0241361 0.0241373 0.0244878 0.0244888 0.0241373 0.0241382 0.0241361 0.0241373 0.0237858 0.0237868 0.0241373 0.0241382 0.0237868 0.0237876 0.0244888 0.0244895 0.0241382 0.0241388 0.0244895 0.02449 0.0241388 0.0241393 0.0241382 0.0241388 0.0237876 0.0237882 0.0241388 0.0241393 0.0237882 0.0237886 0.0237499 0.0237497 0.0234097 0.0234084 0.0237497 0.0237524 0.0234084 0.0234097 0.0234097 0.0234084 0.0230684 0.0230664 0.0234084 0.0234097 0.0230664 0.0230667 0.0237524 0.0237565 0.0234097 0.0234125 0.0237565 0.0237612 0.0234125 0.023416 0.0234097 0.0234125 0.0230667 0.0230683 0.0234125 0.023416 0.0230683 0.0230706 0.0230684 0.0230664 0.0227262 0.0227237 0.0230664 0.0230667 0.0227237 0.0227232 0.0227262 0.0227237 0.0223829 0.0223804 0.0227237 0.0227232 0.0223804 0.0223793 0.0230667 0.0230683 0.0227232 0.0227238 0.0230683 0.0230706 0.0227238 0.0227251 0.0227232 0.0227238 0.0223793 0.0223791 0.0227238 0.0227251 0.0223791 0.0223794 0.0237612 0.023766 0.023416 0.0234196 0.023766 0.0237704 0.0234196 0.023423 0.023416 0.0234196 0.0230706 0.0230732 0.0234196 0.023423 0.0230732 0.0230757 0.0237704 0.0237743 0.023423 0.0234261 0.0237743 0.0237776 0.0234261 0.0234288 0.023423 0.0234261 0.0230757 0.023078 0.0234261 0.0234288 0.023078 0.0230801 0.0230706 0.0230732 0.0227251 0.0227267 0.0230732 0.0230757 0.0227267 0.0227284 0.0227251 0.0227267 0.0223794 0.0223801 0.0227267 0.0227284 0.0223801 0.022381 0.0230757 0.023078 0.0227284 0.0227299 0.023078 0.0230801 0.0227299 0.0227314 0.0227284 0.0227299 0.022381 0.0223819 0.0227299 0.0227314 0.0223819 0.0223827 0.0223829 0.0223804 0.0220387 0.0220364 0.0223804 0.0223793 0.0220364 0.0220349 0.0220387 0.0220364 0.0216935 0.0216917 0.0220364 0.0220349 0.0216917 0.02169 0.0223793 0.0223791 0.0220349 0.022034 0.0223791 0.0223794 0.022034 0.0220336 0.0220349 0.022034 0.02169 0.0216886 0.022034 0.0220336 0.0216886 0.0216875 0.0216935 0.0216917 0.0213475 0.0213464 0.0216917 0.02169 0.0213464 0.0213447 0.0213475 0.0213464 0.0210007 0.0210005 0.0213464 0.0213447 0.0210005 0.020999 0.02169 0.0216886 0.0213447 0.0213429 0.0216886 0.0216875 0.0213429 0.0213412 0.0213447 0.0213429 0.020999 0.0209969 0.0213429 0.0213412 0.0209969 0.0209947 0.0223794 0.0223801 0.0220336 0.0220335 0.0223801 0.022381 0.0220335 0.0220336 0.0220336 0.0220335 0.0216875 0.0216867 0.0220335 0.0220336 0.0216867 0.0216861 0.022381 0.0223819 0.0220336 0.0220338 0.0223819 0.0223827 0.0220338 0.022034 0.0220336 0.0220338 0.0216861 0.0216856 0.0220338 0.022034 0.0216856 0.0216853 0.0216875 0.0216867 0.0213412 0.0213397 0.0216867 0.0216861 0.0213397 0.0213385 0.0213412 0.0213397 0.0209947 0.0209926 0.0213397 0.0213385 0.0209926 0.0209908 0.0216861 0.0216856 0.0213385 0.0213374 0.0216856 0.0216853 0.0213374 0.0213366 0.0213385 0.0213374 0.0209908 0.0209892 0.0213374 0.0213366 0.0209892 0.0209878 0.0237776 0.0237804 0.0234288 0.0234311 0.0237804 0.0237826 0.0234311 0.0234329 0.0234288 0.0234311 0.0230801 0.0230818 0.0234311 0.0234329 0.0230818 0.0230832 0.0237826 0.0237844 0.0234329 0.0234344 0.0237844 0.0237858 0.0234344 0.0234355 0.0234329 0.0234344 0.0230832 0.0230844 0.0234344 0.0234355 0.0230844 0.0230853 0.0230801 0.0230818 0.0227314 0.0227326 0.0230818 0.0230832 0.0227326 0.0227336 0.0227314 0.0227326 0.0223827 0.0223834 0.0227326 0.0227336 0.0223834 0.0223841 0.0230832 0.0230844 0.0227336 0.0227345 0.0230844 0.0230853 0.0227345 0.0227352 0.0227336 0.0227345 0.0223841 0.0223846 0.0227345 0.0227352 0.0223846 0.022385 0.0237858 0.0237868 0.0234355 0.0234364 0.0237868 0.0237876 0.0234364 0.0234371 0.0234355 0.0234364 0.0230853 0.023086 0.0234364 0.0234371 0.023086 0.0230866 0.0237876 0.0237882 0.0234371 0.0234376 0.0237882 0.0237886 0.0234376 0.0234379 0.0234371 0.0234376 0.0230866 0.023087 0.0234376 0.0234379 0.023087 0.0230873 0.0230853 0.023086 0.0227352 0.0227357 0.023086 0.0230866 0.0227357 0.0227361 0.0227352 0.0227357 0.022385 0.0223854 0.0227357 0.0227361 0.0223854 0.0223856 0.0230866 0.023087 0.0227361 0.0227364 0.023087 0.0230873 0.0227364 0.0227366 0.0227361 0.0227364 0.0223856 0.0223858 0.0227364 0.0227366 0.0223858 0.022386 0.0223827 0.0223834 0.022034 0.0220343 0.0223834 0.0223841 0.0220343 0.0220345 0.022034 0.0220343 0.0216853 0.0216851 0.0220343 0.0220345 0.0216851 0.021685 0.0223841 0.0223846 0.0220345 0.0220347 0.0223846 0.022385 0.0220347 0.0220349 0.0220345 0.0220347 0.021685 0.0216849 0.0220347 0.0220349 0.0216849 0.0216848 0.0216853 0.0216851 0.0213366 0.0213359 0.0216851 0.021685 0.0213359 0.0213354 0.0213366 0.0213359 0.0209878 0.0209867 0.0213359 0.0213354 0.0209867 0.0209859 0.021685 0.0216849 0.0213354 0.021335 0.0216849 0.0216848 0.021335 0.0213347 0.0213354 0.021335 0.0209859 0.0209852 0.021335 0.0213347 0.0209852 0.0209846 0.022385 0.0223854 0.0220349 0.0220351 0.0223854 0.0223856 0.0220351 0.0220352 0.0220349 0.0220351 0.0216848 0.0216848 0.0220351 0.0220352 0.0216848 0.0216848 0.0223856 0.0223858 0.0220352 0.0220353 0.0223858 0.022386 0.0220353 0.0220354 0.0220352 0.0220353 0.0216848 0.0216848 0.0220353 0.0220354 0.0216848 0.0216848 0.0216848 0.0216848 0.0213347 0.0213345 0.0216848 0.0216848 0.0213345 0.0213343 0.0213347 0.0213345 0.0209846 0.0209842 0.0213345 0.0213343 0.0209842 0.0209839 0.0216848 0.0216848 0.0213343 0.0213342 0.0216848 0.0216848 0