# vtk DataFile Version 3.0
#This file was generated by the deal.II library on 2022/1/6 at 21:25:07
ASCII
DATASET UNSTRUCTURED_GRID

POINTS 16384 double
0 0 0
0.1875 0 0
0 0.046875 0
0.1875 0.046875 0
0.1875 0 0
0.375 0 0
0.1875 0.046875 0
0.375 0.046875 0
0 0.046875 0
0.1875 0.046875 0
0 0.09375 0
0.1875 0.09375 0
0.1875 0.046875 0
0.375 0.046875 0
0.1875 0.09375 0
0.375 0.09375 0
0.375 0 0
0.5625 0 0
0.375 0.046875 0
0.5625 0.046875 0
0.5625 0 0
0.75 0 0
0.5625 0.046875 0
0.75 0.046875 0
0.375 0.046875 0
0.5625 0.046875 0
0.375 0.09375 0
0.5625 0.09375 0
0.5625 0.046875 0
0.75 0.046875 0
0.5625 0.09375 0
0.75 0.09375 0
0 0.09375 0
0.1875 0.09375 0
0 0.140625 0
0.1875 0.140625 0
0.1875 0.09375 0
0.375 0.09375 0
0.1875 0.140625 0
0.375 0.140625 0
0 0.140625 0
0.1875 0.140625 0
0 0.1875 0
0.1875 0.1875 0
0.1875 0.140625 0
0.375 0.140625 0
0.1875 0.1875 0
0.375 0.1875 0
0.375 0.09375 0
0.5625 0.09375 0
0.375 0.140625 0
0.5625 0.140625 0
0.5625 0.09375 0
0.75 0.09375 0
0.5625 0.140625 0
0.75 0.140625 0
0.375 0.140625 0
0.5625 0.140625 0
0.375 0.1875 0
0.5625 0.1875 0
0.5625 0.140625 0
0.75 0.140625 0
0.5625 0.1875 0
0.75 0.1875 0
0.75 0 0
0.9375 0 0
0.75 0.046875 0
0.9375 0.046875 0
0.9375 0 0
1.125 0 0
0.9375 0.046875 0
1.125 0.046875 0
0.75 0.046875 0
0.9375 0.046875 0
0.75 0.09375 0
0.9375 0.09375 0
0.9375 0.046875 0
1.125 0.046875 0
0.9375 0.09375 0
1.125 0.09375 0
1.125 0 0
1.3125 0 0
1.125 0.046875 0
1.3125 0.046875 0
1.3125 0 0
1.5 0 0
1.3125 0.046875 0
1.5 0.046875 0
1.125 0.046875 0
1.3125 0.046875 0
1.125 0.09375 0
1.3125 0.09375 0
1.3125 0.046875 0
1.5 0.046875 0
1.3125 0.09375 0
1.5 0.09375 0
0.75 0.09375 0
0.9375 0.09375 0
0.75 0.140625 0
0.9375 0.140625 0
0.9375 0.09375 0
1.125 0.09375 0
0.9375 0.140625 0
1.125 0.140625 0
0.75 0.140625 0
0.9375 0.140625 0
0.75 0.1875 0
0.9375 0.1875 0
0.9375 0.140625 0
1.125 0.140625 0
0.9375 0.1875 0
1.125 0.1875 0
1.125 0.09375 0
1.3125 0.09375 0
1.125 0.140625 0
1.3125 0.140625 0
1.3125 0.09375 0
1.5 0.09375 0
1.3125 0.140625 0
1.5 0.140625 0
1.125 0.140625 0
1.3125 0.140625 0
1.125 0.1875 0
1.3125 0.1875 0
1.3125 0.140625 0
1.5 0.140625 0
1.3125 0.1875 0
1.5 0.1875 0
0 0.1875 0
0.1875 0.1875 0
0 0.234375 0
0.1875 0.234375 0
0.1875 0.1875 0
0.375 0.1875 0
0.1875 0.234375 0
0.375 0.234375 0
0 0.234375 0
0.1875 0.234375 0
0 0.28125 0
0.1875 0.28125 0
0.1875 0.234375 0
0.375 0.234375 0
0.1875 0.28125 0
0.375 0.28125 0
0.375 0.1875 0
0.5625 0.1875 0
0.375 0.234375 0
0.5625 0.234375 0
0.5625 0.1875 0
0.75 0.1875 0
0.5625 0.234375 0
0.75 0.234375 0
0.375 0.234375 0
0.5625 0.234375 0
0.375 0.28125 0
0.5625 0.28125 0
0.5625 0.234375 0
0.75 0.234375 0
0.5625 0.28125 0
0.75 0.28125 0
0 0.28125 0
0.1875 0.28125 0
0 0.328125 0
0.1875 0.328125 0
0.1875 0.28125 0
0.375 0.28125 0
0.1875 0.328125 0
0.375 0.328125 0
0 0.328125 0
0.1875 0.328125 0
0 0.375 0
0.1875 0.375 0
0.1875 0.328125 0
0.375 0.328125 0
0.1875 0.375 0
0.375 0.375 0
0.375 0.28125 0
0.5625 0.28125 0
0.375 0.328125 0
0.5625 0.328125 0
0.5625 0.28125 0
0.75 0.28125 0
0.5625 0.328125 0
0.75 0.328125 0
0.375 0.328125 0
0.5625 0.328125 0
0.375 0.375 0
0.5625 0.375 0
0.5625 0.328125 0
0.75 0.328125 0
0.5625 0.375 0
0.75 0.375 0
0.75 0.1875 0
0.9375 0.1875 0
0.75 0.234375 0
0.9375 0.234375 0
0.9375 0.1875 0
1.125 0.1875 0
0.9375 0.234375 0
1.125 0.234375 0
0.75 0.234375 0
0.9375 0.234375 0
0.75 0.28125 0
0.9375 0.28125 0
0.9375 0.234375 0
1.125 0.234375 0
0.9375 0.28125 0
1.125 0.28125 0
1.125 0.1875 0
1.3125 0.1875 0
1.125 0.234375 0
1.3125 0.234375 0
1.3125 0.1875 0
1.5 0.1875 0
1.3125 0.234375 0
1.5 0.234375 0
1.125 0.234375 0
1.3125 0.234375 0
1.125 0.28125 0
1.3125 0.28125 0
1.3125 0.234375 0
1.5 0.234375 0
1.3125 0.28125 0
1.5 0.28125 0
0.75 0.28125 0
0.9375 0.28125 0
0.75 0.328125 0
0.9375 0.328125 0
0.9375 0.28125 0
1.125 0.28125 0
0.9375 0.328125 0
1.125 0.328125 0
0.75 0.328125 0
0.9375 0.328125 0
0.75 0.375 0
0.9375 0.375 0
0.9375 0.328125 0
1.125 0.328125 0
0.9375 0.375 0
1.125 0.375 0
1.125 0.28125 0
1.3125 0.28125 0
1.125 0.328125 0
1.3125 0.328125 0
1.3125 0.28125 0
1.5 0.28125 0
1.3125 0.328125 0
1.5 0.328125 0
1.125 0.328125 0
1.3125 0.328125 0
1.125 0.375 0
1.3125 0.375 0
1.3125 0.328125 0
1.5 0.328125 0
1.3125 0.375 0
1.5 0.375 0
1.5 0 0
1.6875 0 0
1.5 0.046875 0
1.6875 0.046875 0
1.6875 0 0
1.875 0 0
1.6875 0.046875 0
1.875 0.046875 0
1.5 0.046875 0
1.6875 0.046875 0
1.5 0.09375 0
1.6875 0.09375 0
1.6875 0.046875 0
1.875 0.046875 0
1.6875 0.09375 0
1.875 0.09375 0
1.875 0 0
2.0625 0 0
1.875 0.046875 0
2.0625 0.046875 0
2.0625 0 0
2.25 0 0
2.0625 0.046875 0
2.25 0.046875 0
1.875 0.046875 0
2.0625 0.046875 0
1.875 0.09375 0
2.0625 0.09375 0
2.0625 0.046875 0
2.25 0.046875 0
2.0625 0.09375 0
2.25 0.09375 0
1.5 0.09375 0
1.6875 0.09375 0
1.5 0.140625 0
1.6875 0.140625 0
1.6875 0.09375 0
1.875 0.09375 0
1.6875 0.140625 0
1.875 0.140625 0
1.5 0.140625 0
1.6875 0.140625 0
1.5 0.1875 0
1.6875 0.1875 0
1.6875 0.140625 0
1.875 0.140625 0
1.6875 0.1875 0
1.875 0.1875 0
1.875 0.09375 0
2.0625 0.09375 0
1.875 0.140625 0
2.0625 0.140625 0
2.0625 0.09375 0
2.25 0.09375 0
2.0625 0.140625 0
2.25 0.140625 0
1.875 0.140625 0
2.0625 0.140625 0
1.875 0.1875 0
2.0625 0.1875 0
2.0625 0.140625 0
2.25 0.140625 0
2.0625 0.1875 0
2.25 0.1875 0
2.25 0 0
2.4375 0 0
2.25 0.046875 0
2.4375 0.046875 0
2.4375 0 0
2.625 0 0
2.4375 0.046875 0
2.625 0.046875 0
2.25 0.046875 0
2.4375 0.046875 0
2.25 0.09375 0
2.4375 0.09375 0
2.4375 0.046875 0
2.625 0.046875 0
2.4375 0.09375 0
2.625 0.09375 0
2.625 0 0
2.8125 0 0
2.625 0.046875 0
2.8125 0.046875 0
2.8125 0 0
3 0 0
2.8125 0.046875 0
3 0.046875 0
2.625 0.046875 0
2.8125 0.046875 0
2.625 0.09375 0
2.8125 0.09375 0
2.8125 0.046875 0
3 0.046875 0
2.8125 0.09375 0
3 0.09375 0
2.25 0.09375 0
2.4375 0.09375 0
2.25 0.140625 0
2.4375 0.140625 0
2.4375 0.09375 0
2.625 0.09375 0
2.4375 0.140625 0
2.625 0.140625 0
2.25 0.140625 0
2.4375 0.140625 0
2.25 0.1875 0
2.4375 0.1875 0
2.4375 0.140625 0
2.625 0.140625 0
2.4375 0.1875 0
2.625 0.1875 0
2.625 0.09375 0
2.8125 0.09375 0
2.625 0.140625 0
2.8125 0.140625 0
2.8125 0.09375 0
3 0.09375 0
2.8125 0.140625 0
3 0.140625 0
2.625 0.140625 0
2.8125 0.140625 0
2.625 0.1875 0
2.8125 0.1875 0
2.8125 0.140625 0
3 0.140625 0
2.8125 0.1875 0
3 0.1875 0
1.5 0.1875 0
1.6875 0.1875 0
1.5 0.234375 0
1.6875 0.234375 0
1.6875 0.1875 0
1.875 0.1875 0
1.6875 0.234375 0
1.875 0.234375 0
1.5 0.234375 0
1.6875 0.234375 0
1.5 0.28125 0
1.6875 0.28125 0
1.6875 0.234375 0
1.875 0.234375 0
1.6875 0.28125 0
1.875 0.28125 0
1.875 0.1875 0
2.0625 0.1875 0
1.875 0.234375 0
2.0625 0.234375 0
2.0625 0.1875 0
2.25 0.1875 0
2.0625 0.234375 0
2.25 0.234375 0
1.875 0.234375 0
2.0625 0.234375 0
1.875 0.28125 0
2.0625 0.28125 0
2.0625 0.234375 0
2.25 0.234375 0
2.0625 0.28125 0
2.25 0.28125 0
1.5 0.28125 0
1.6875 0.28125 0
1.5 0.328125 0
1.6875 0.328125 0
1.6875 0.28125 0
1.875 0.28125 0
1.6875 0.328125 0
1.875 0.328125 0
1.5 0.328125 0
1.6875 0.328125 0
1.5 0.375 0
1.6875 0.375 0
1.6875 0.328125 0
1.875 0.328125 0
1.6875 0.375 0
1.875 0.375 0
1.875 0.28125 0
2.0625 0.28125 0
1.875 0.328125 0
2.0625 0.328125 0
2.0625 0.28125 0
2.25 0.28125 0
2.0625 0.328125 0
2.25 0.328125 0
1.875 0.328125 0
2.0625 0.328125 0
1.875 0.375 0
2.0625 0.375 0
2.0625 0.328125 0
2.25 0.328125 0
2.0625 0.375 0
2.25 0.375 0
2.25 0.1875 0
2.4375 0.1875 0
2.25 0.234375 0
2.4375 0.234375 0
2.4375 0.1875 0
2.625 0.1875 0
2.4375 0.234375 0
2.625 0.234375 0
2.25 0.234375 0
2.4375 0.234375 0
2.25 0.28125 0
2.4375 0.28125 0
2.4375 0.234375 0
2.625 0.234375 0
2.4375 0.28125 0
2.625 0.28125 0
2.625 0.1875 0
2.8125 0.1875 0
2.625 0.234375 0
2.8125 0.234375 0
2.8125 0.1875 0
3 0.1875 0
2.8125 0.234375 0
3 0.234375 0
2.625 0.234375 0
2.8125 0.234375 0
2.625 0.28125 0
2.8125 0.28125 0
2.8125 0.234375 0
3 0.234375 0
2.8125 0.28125 0
3 0.28125 0
2.25 0.28125 0
2.4375 0.28125 0
2.25 0.328125 0
2.4375 0.328125 0
2.4375 0.28125 0
2.625 0.28125 0
2.4375 0.328125 0
2.625 0.328125 0
2.25 0.328125 0
2.4375 0.328125 0
2.25 0.375 0
2.4375 0.375 0
2.4375 0.328125 0
2.625 0.328125 0
2.4375 0.375 0
2.625 0.375 0
2.625 0.28125 0
2.8125 0.28125 0
2.625 0.328125 0
2.8125 0.328125 0
2.8125 0.28125 0
3 0.28125 0
2.8125 0.328125 0
3 0.328125 0
2.625 0.328125 0
2.8125 0.328125 0
2.625 0.375 0
2.8125 0.375 0
2.8125 0.328125 0
3 0.328125 0
2.8125 0.375 0
3 0.375 0
0 0.375 0
0.1875 0.375 0
0 0.421875 0
0.1875 0.421875 0
0.1875 0.375 0
0.375 0.375 0
0.1875 0.421875 0
0.375 0.421875 0
0 0.421875 0
0.1875 0.421875 0
0 0.46875 0
0.1875 0.46875 0
0.1875 0.421875 0
0.375 0.421875 0
0.1875 0.46875 0
0.375 0.46875 0
0.375 0.375 0
0.5625 0.375 0
0.375 0.421875 0
0.5625 0.421875 0
0.5625 0.375 0
0.75 0.375 0
0.5625 0.421875 0
0.75 0.421875 0
0.375 0.421875 0
0.5625 0.421875 0
0.375 0.46875 0
0.5625 0.46875 0
0.5625 0.421875 0
0.75 0.421875 0
0.5625 0.46875 0
0.75 0.46875 0
0 0.46875 0
0.1875 0.46875 0
0 0.515625 0
0.1875 0.515625 0
0.1875 0.46875 0
0.375 0.46875 0
0.1875 0.515625 0
0.375 0.515625 0
0 0.515625 0
0.1875 0.515625 0
0 0.5625 0
0.1875 0.5625 0
0.1875 0.515625 0
0.375 0.515625 0
0.1875 0.5625 0
0.375 0.5625 0
0.375 0.46875 0
0.5625 0.46875 0
0.375 0.515625 0
0.5625 0.515625 0
0.5625 0.46875 0
0.75 0.46875 0
0.5625 0.515625 0
0.75 0.515625 0
0.375 0.515625 0
0.5625 0.515625 0
0.375 0.5625 0
0.5625 0.5625 0
0.5625 0.515625 0
0.75 0.515625 0
0.5625 0.5625 0
0.75 0.5625 0
0.75 0.375 0
0.9375 0.375 0
0.75 0.421875 0
0.9375 0.421875 0
0.9375 0.375 0
1.125 0.375 0
0.9375 0.421875 0
1.125 0.421875 0
0.75 0.421875 0
0.9375 0.421875 0
0.75 0.46875 0
0.9375 0.46875 0
0.9375 0.421875 0
1.125 0.421875 0
0.9375 0.46875 0
1.125 0.46875 0
1.125 0.375 0
1.3125 0.375 0
1.125 0.421875 0
1.3125 0.421875 0
1.3125 0.375 0
1.5 0.375 0
1.3125 0.421875 0
1.5 0.421875 0
1.125 0.421875 0
1.3125 0.421875 0
1.125 0.46875 0
1.3125 0.46875 0
1.3125 0.421875 0
1.5 0.421875 0
1.3125 0.46875 0
1.5 0.46875 0
0.75 0.46875 0
0.9375 0.46875 0
0.75 0.515625 0
0.9375 0.515625 0
0.9375 0.46875 0
1.125 0.46875 0
0.9375 0.515625 0
1.125 0.515625 0
0.75 0.515625 0
0.9375 0.515625 0
[...]
POINT_DATA 16384
SCALARS x_displacement double 1
LOOKUP_TABLE default
0 0.0194166 0 0.0180324 0.0194166 0.0285369 0.0180324 0.0287308 0 0.0180324 0 0.0169277 0.0180324 0.0287308 0.0169277 0.0274959 0.0285369 0.0335621 0.0287308 0.0328854 0.0335621 0.0293973 0.0328854 0.0288045 0.0287308 0.0328854 0.0274959 0.031614 0.0328854 0.0288045 0.031614 0.0278095 0 0.0169277 0 0.0157792 0.0169277 0.0274959 0.0157792 0.0251104 0 0.0157792 0 0.0146514 0.0157792 0.0251104 0.0146514 0.022337 0.0274959 0.031614 0.0251104 0.0295442 0.031614 0.0278095 0.0295442 0.0264503 0.0251104 0.0295442 0.022337 0.026478 0.0295442 0.0264503 0.026478 0.0248383 0.0293973 0.0258721 0.0288045 0.0254337 0.0258721 0.0237694 0.0254337 0.0234849 0.0288045 0.0254337 0.0278095 0.0248289 0.0254337 0.0234849 0.0248289 0.0230856 0.0237694 0.0225774 0.0234849 0.0223186 0.0225774 0.0218726 0.0223186 0.021613 0.0234849 0.0223186 0.0230856 0.021997 0.0223186 0.021613 0.021997 0.0213149 0.0278095 0.0248289 0.0264503 0.0240781 0.0248289 0.0230856 0.0240781 0.0225917 0.0264503 0.0240781 0.0248383 0.0232168 0.0240781 0.0225917 0.0232168 0.0220151 0.0230856 0.021997 0.0225917 0.0216149 0.021997 0.0213149 0.0216149 0.0209804 0.0225917 0.0216149 0.0220151 0.02118 0.0216149 0.0209804 0.02118 0.0206116 0 0.0146514 0 0.013587 0.0146514 0.022337 0.013587 0.0195363 0 0.013587 0 0.0125687 0.013587 0.0195363 0.0125687 0.0172567 0.022337 0.026478 0.0195363 0.0232682 0.026478 0.0248383 0.0232682 0.02319 0.0195363 0.0232682 0.0172567 0.0207083 0.0232682 0.02319 0.0207083 0.0215269 0 0.0125687 0 0.0116657 0.0125687 0.0172567 0.0116657 0.0154092 0 0.0116657 0 0.0108955 0.0116657 0.0154092 0.0108955 0.0139084 0.0172567 0.0207083 0.0154092 0.0186607 0.0207083 0.0215269 0.0186607 0.0199655 0.0154092 0.0186607 0.0139084 0.0169768 0.0186607 0.0199655 0.0169768 0.0185488 0.0248383 0.0232168 0.02319 0.0222572 0.0232168 0.0220151 0.0222572 0.0213749 0.02319 0.0222572 0.0215269 0.0212465 0.0222572 0.0213749 0.0212465 0.0206848 0.0220151 0.02118 0.0213749 0.020699 0.02118 0.0206116 0.020699 0.0202117 0.0213749 0.020699 0.0206848 0.0201802 0.020699 0.0202117 0.0201802 0.0197845 0.0215269 0.0212465 0.0199655 0.0202093 0.0212465 0.0206848 0.0202093 0.0199621 0.0199655 0.0202093 0.0185488 0.0191799 0.0202093 0.0199621 0.0191799 0.01922 0.0206848 0.0201802 0.0199621 0.0196311 0.0201802 0.0197845 0.0196311 0.0193342 0.0199621 0.0196311 0.01922 0.0190602 0.0196311 0.0193342 0.0190602 0.018865 0.0218726 0.0214527 0.021613 0.0211836 0.0214527 0.0212068 0.0211836 0.0209255 0.021613 0.0211836 0.0213149 0.0208905 0.0211836 0.0209255 0.0208905 0.020629 0.0212068 0.0210691 0.0209255 0.0207756 0.0210691 0.0209988 0.0207756 0.0206943 0.0209255 0.0207756 0.020629 0.0204725 0.0207756 0.0206943 0.0204725 0.0203837 0.0213149 0.0208905 0.0209804 0.0205739 0.0208905 0.020629 0.0205739 0.0203174 0.0209804 0.0205739 0.0206116 0.0202352 0.0205739 0.0203174 0.0202352 0.0199912 0.020629 0.0204725 0.0203174 0.0201597 0.0204725 0.0203837 0.0201597 0.020067 0.0203174 0.0201597 0.0199912 0.0198373 0.0201597 0.020067 0.0198373 0.019744 0.0209988 0.0209701 0.0206943 0.020656 0.0209701 0.0209664 0.020656 0.0206443 0.0206943 0.020656 0.0203837 0.0203383 0.020656 0.0206443 0.0203383 0.02032 0.0209664 0.0209768 0.0206443 0.0206481 0.0209768 0.0209946 0.0206481 0.0206605 0.0206443 0.0206481 0.02032 0.0203183 0.0206481 0.0206605 0.0203183 0.0203259 0.0203837 0.0203383 0.020067 0.0200166 0.0203383 0.02032 0.0200166 0.0199934 0.020067 0.0200166 0.019744 0.019691 0.0200166 0.0199934 0.019691 0.0196643 0.02032 0.0203183 0.0199934 0.019987 0.0203183 0.0203259 0.019987 0.0199907 0.0199934 0.019987 0.0196643 0.0196544 0.019987 0.0199907 0.0196544 0.0196546 0.0206116 0.0202352 0.0202117 0.0198756 0.0202352 0.0199912 0.0198756 0.0196511 0.0202117 0.0198756 0.0197845 0.0194972 0.0198756 0.0196511 0.0194972 0.0192981 0.0199912 0.0198373 0.0196511 0.0195056 0.0198373 0.019744 0.0195056 0.0194148 0.0196511 0.0195056 0.0192981 0.0191651 0.0195056 0.0194148 0.0191651 0.0190797 0.0197845 0.0194972 0.0193342 0.0191019 0.0194972 0.0192981 0.0191019 0.0189331 0.0193342 0.0191019 0.018865 0.0186921 0.0191019 0.0189331 0.0186921 0.0185574 0.0192981 0.0191651 0.0189331 0.0188163 0.0191651 0.0190797 0.0188163 0.0187389 0.0189331 0.0188163 0.0185574 0.0184598 0.0188163 0.0187389 0.0184598 0.0183927 0.019744 0.019691 0.0194148 0.0193613 0.019691 0.0196643 0.0193613 0.0193327 0.0194148 0.0193613 0.0190797 0.0190277 0.0193613 0.0193327 0.0190277 0.0189984 0.0196643 0.0196544 0.0193327 0.0193201 0.0196544 0.0196546 0.0193201 0.0193177 0.0193327 0.0193201 0.0189984 0.0189842 0.0193201 0.0193177 0.0189842 0.0189797 0.0190797 0.0190277 0.0187389 0.0186902 0.0190277 0.0189984 0.0186902 0.0186616 0.0187389 0.0186902 0.0183927 0.018349 0.0186902 0.0186616 0.018349 0.0183223 0.0189984 0.0189842 0.0186616 0.0186467 0.0189842 0.0189797 0.0186467 0.0186408 0.0186616 0.0186467 0.0183223 0.0183075 0.0186467 0.0186408 0.0183075 0.0183008 0 0.0108955 0 0.0102515 0.0108955 0.0139084 0.0102515 0.0126831 0 0.0102515 0 0.00971769 0.0102515 0.0126831 0.00971769 0.0116769 0.0139084 0.0169768 0.0126831 0.0155703 0.0169768 0.0185488 0.0155703 0.0172795 0.0126831 0.0155703 0.0116769 0.0143835 0.0155703 0.0172795 0.0143835 0.016148 0 0.00971769 0 0.00927603 0.00971769 0.0116769 0.00927603 0.0108457 0 0.00927603 0 0.00890983 0.00927603 0.0108457 0.00890983 0.0101547 0.0116769 0.0143835 0.0108457 0.0133747 0.0143835 0.016148 0.0133747 0.015141 0.0108457 0.0133747 0.0101547 0.0125121 0.0133747 0.015141 0.0125121 0.0142451 0.0185488 0.0191799 0.0172795 0.0181851 0.0191799 0.01922 0.0181851 0.0184717 0.0172795 0.0181851 0.016148 0.0172409 0.0181851 0.0184717 0.0172409 0.0177295 0.01922 0.0190602 0.0184717 0.0184751 0.0190602 0.018865 0.0184751 0.0183812 0.0184717 0.0184751 0.0177295 0.0178826 0.0184751 0.0183812 0.0178826 0.0178872 0.016148 0.0172409 0.015141 0.0163554 0.0172409 0.0177295 0.0163554 0.0170034 0.015141 0.0163554 0.0142451 0.0155314 0.0163554 0.0170034 0.0155314 0.0163007 0.0177295 0.0178826 0.0170034 0.0172892 0.0178826 0.0178872 0.0172892 0.0173869 0.0170034 0.0172892 0.0163007 0.0167005 0.0172892 0.0173869 0.0167005 0.016884 0 0.00890983 0 0.00860477 0.00890983 0.0101547 0.00860477 0.00957642 0 0.00860477 0 0.00834904 0.00860477 0.00957642 0.00834904 0.00908909 0.0101547 0.0125121 0.00957642 0.0117705 0.0125121 0.0142451 0.0117705 0.0134472 0.00957642 0.0117705 0.00908909 0.0111296 0.0117705 0.0134472 0.0111296 0.0127357 0 0.00834904 0 0.00813311 0.00834904 0.00908909 0.00813311 0.00867539 0 0.00813311 0 0.00794933 0.00813311 0.00867539 0.00794933 0.00832155 0.00908909 0.0111296 0.00867539 0.0105728 0.0111296 0.0127357 0.0105728 0.0120999 0.00867539 0.0105728 0.00832155 0.0100867 0.0105728 0.0120999 0.0100867 0.0115305 0.0142451 0.0155314 0.0134472 0.0147685 0.0155314 0.0163007 0.0147685 0.0156264 0.0134472 0.0147685 0.0127357 0.0140644 0.0147685 0.0156264 0.0140644 0.0149834 0.0163007 0.0167005 0.0156264 0.0161211 0.0167005 0.016884 0.0161211 0.0163818 0.0156264 0.0161211 0.0149834 0.0155548 0.0161211 0.0163818 0.0155548 0.0158833 0.0127357 0.0140644 0.0120999 0.0134156 0.0140644 0.0149834 0.0134156 0.0143731 0.0120999 0.0134156 0.0115305 0.0128184 0.0134156 0.0143731 0.0128184 0.0137959 0.0149834 0.0155548 0.0143731 0.0150044 0.0155548 0.0158833 0.0150044 0.015391 0.0143731 0.0150044 0.0137959 0.0144719 0.0150044 0.015391 0.0144719 0.014907 0.018865 0.0186921 0.0183812 0.0182702 0.0186921 0.0185574 0.0182702 0.0181725 0.0183812 0.0182702 0.0178872 0.0178387 0.0182702 0.0181725 0.0178387 0.0177796 0.0185574 0.0184598 0.0181725 0.0180964 0.0184598 0.0183927 0.0180964 0.0180416 0.0181725 0.0180964 0.0177796 0.017727 0.0180964 0.0180416 0.017727 0.0176859 0.0178872 0.0178387 0.0173869 0.0174 0.0178387 0.0177796 0.0174 0.0173804 0.0173869 0.0174 0.016884 0.0169564 0.0174 0.0173804 0.0169564 0.0169761 0.0177796 0.017727 0.0173804 0.0173524 0.017727 0.0176859 0.0173524 0.0173262 0.0173804 0.0173524 0.0169761 0.0169734 0.0173524 0.0173262 0.0169734 0.0169631 0.0183927 0.018349 0.0180416 0.0180043 0.018349 0.0183223 0.0180043 0.0179806 0.0180416 0.0180043 0.0176859 0.0176563 0.0180043 0.0179806 0.0176563 0.0176366 0.0183223 0.0183075 0.0179806 0.0179667 0.0183075 0.0183008 0.0179667 0.0179597 0.0179806 0.0179667 0.0176366 0.0176243 0.0179667 0.0179597 0.0176243 0.0176176 0.0176859 0.0176563 0.0173262 0.0173054 0.0176563 0.0176366 0.0173054 0.0172904 0.0173262 0.0173054 0.0169631 0.0169518 0.0173054 0.0172904 0.0169518 0.0169422 0.0176366 0.0176243 0.0172904 0.0172804 0.0176243 0.0176176 0.0172804 0.0172744 0.0172904 0.0172804 0.0169422 0.016935 0.0172804 0.0172744 0.016935 0.0169302 0.016884 0.0169564 0.0163818 0.0165102 0.0169564 0.0169761 0.0165102 0.0165683 0.0163818 0.0165102 0.0158833 0.0160635 0.0165102 0.0165683 0.0160635 0.0161584 0.0169761 0.0169734 0.0165683 0.016591 0.0169734 0.0169631 0.016591 0.016597 0.0165683 0.016591 0.0161584 0.0162061 0.016591 0.016597 0.0162061 0.0162286 0.0158833 0.0160635 0.015391 0.0156181 0.0160635 0.0161584 0.0156181 0.0157476 0.015391 0.0156181 0.014907 0.0151756 0.0156181 0.0157476 0.0151756 0.015337 0.0161584 0.0162061 0.0157476 0.0158195 0.0162061 0.0162286 0.0158195 0.0158583 0.0157476 0.0158195 0.015337 0.0154321 0.0158195 0.0158583 0.0154321 0.0154868 0.0169631 0.0169518 0.016597 0.0165958 0.0169518 0.0169422 0.0165958 0.0165922 0.016597 0.0165958 0.0162286 0.0162378 0.0165958 0.0165922 0.0162378 0.0162406 0.0169422 0.016935 0.0165922 0.0165883 0.016935 0.0169302 0.0165883 0.016585 0.0165922 0.0165883 0.0162406 0.0162403 0.0165883 0.016585 0.0162403 0.0162389 0.0162286 0.0162378 0.0158583 0.0158782 0.0162378 0.0162406 0.0158782 0.0158876 0.0158583 0.0158782 0.0154868 0.0155173 0.0158782 0.0158876 0.0155173 0.0155335 0.0162406 0.0162403 0.0158876 0.0158913 0.0162403 0.0162389 0.0158913 0.0158919 0.0158876 0.0158913 0.0155335 0.0155412 0.0158913 0.0158919 0.0155412 0.0155442 0.0209946 0.0210152 0.0206605 0.0206769 0.0210152 0.021036 0.0206769 0.0206943 0.0206605 0.0206769 0.0203259 0.0203384 0.0206769 0.0206943 0.0203384 0.0203528 0.021036 0.0210554 0.0206943 0.0207112 0.0210554 0.0210727 0.0207112 0.0207266 0.0206943 0.0207112 0.0203528 0.0203672 0.0207112 0.0207266 0.0203672 0.0203807 0.0203259 0.0203384 0.0199907 0.0199997 0.0203384 0.0203528 0.0199997 0.0200113 0.0199907 0.0199997 0.0196546 0.0196607 0.0199997 0.0200113 0.0196607 0.0196697 0.0203528 0.0203672 0.0200113 0.0200234 0.0203672 0.0203807 0.0200234 0.0200351 0.0200113 0.0200234 0.0196697 0.0196797 0.0200234 0.0200351 0.0196797 0.0196896 0.0210727 0.0210876 0.0207266 0.02074 0.0210876 0.0211 0.02074 0.0207513 0.0207266 0.02074 0.0203807 0.0203927 0.02074 0.0207513 0.0203927 0.0204029 0.0211 0.0211101 0.0207513 0.0207606 0.0211101 0.0211181 0.0207606 0.0207681 0.0207513 0.0207606 0.0204029 0.0204114 0.0207606 0.0207681 0.0204114 0.0204184 0.0203807 0.0203927 0.0200351 0.0200456 0.0203927 0.0204029 0.0200456 0.0200548 0.0200351 0.0200456 0.0196896 0.0196987 0.0200456 0.0200548 0.0196987 0.0197068 0.0204029 0.0204114 0.0200548 0.0200625 0.0204114 0.0204184 0.0200625 0.0200688 0.0200548 0.0200625 0.0197068 0.0197137 0.0200625 0.0200688 0.0197137 0.0197194 0.0196546 0.0196607 0.0193177 0.0193212 0.0196607 0.0196697 0.0193212 0.0193279 0.0193177 0.0193212 0.0189797 0.0189811 0.0193212 0.0193279 0.0189811 0.0189858 0.0196697 0.0196797 0.0193279 0.0193359 0.0196797 0.0196896 0.0193359 0.0193442 0.0193279 0.0193359 0.0189858 0.0189921 0.0193359 0.0193442 0.0189921 0.0189989 0.0189797 0.0189811 0.0186408 0.0186405 0.0189811 0.0189858 0.0186405 0.0186435 0.0186408 0.0186405 0.0183008 0.0182992 0.0186405 0.0186435 0.0182992 0.0183008 0.0189858 0.0189921 0.0186435 0.0186482 0.0189921 0.0189989 0.0186482 0.0186536 0.0186435 0.0186482 0.0183008 0.0183041 0.0186482 0.0186536 0.0183041 0.0183082 0.0196896 0.0196987 0.0193442 0.019352 0.0196987 0.0197068 0.019352 0.0193591 0.0193442 0.019352 0.0189989 0.0190054 0.019352 0.0193591 0.0190054 0.0190114 0.0197068 0.0197137 0.0193591 0.0193651 0.0197137 0.0197194 0.0193651 0.0193702 0.0193591 0.0193651 0.0190114 0.0190167 0.0193651 0.0193702 0.0190167 0.0190211 0.0189989 0.0190054 0.0186536 0.0186589 0.0190054 0.0190114 0.0186589 0.0186639 0.0186536 0.0186589 0.0183082 0.0183124 0.0186589 0.0186639 0.0183124 0.0183165 0.0190114 0.0190167 0.0186639 0.0186684 0.0190167 0.0190211 0.0186684 0.0186722 0.0186639 0.0186684 0.0183165 0.0183201 0.0186684 0.0186722 0.0183201 0.0183233 0.0211181 0.0211244 0.0207681 0.0207741 0.0211244 0.0211292 0.0207741 0.0207786 0.0207681 0.0207741 0.0204184 0.0204239 0.0207741 0.0207786 0.0204239 0.0204282 0.0211292 0.0211329 0.0207786 0.0207821 0.0211329 0.0211355 0.0207821 0.0207847 0.0207786 0.0207821 0.0204282 0.0204315 0.0207821 0.0207847 0.0204315 0.0204339 0.0204184 0.0204239 0.0200688 0.0200739 0.0204239 0.0204282 0.0200739 0.0200779 0.0200688 0.0200739 0.0197194 0.0197241 0.0200739 0.0200779 0.0197241 0.0197277 0.0204282 0.0204315 0.0200779 0.020081 0.0204315 0.0204339 0.020081 0.0200833 0.0200779 0.020081 0.0197277 0.0197306 0.020081 0.0200833 0.0197306 0.0197327 0.0211355 0.0211375 0.0207847 0.0207866 0.0211375 0.0211388 0.0207866 0.0207879 0.0207847 0.0207866 0.0204339 0.0204358 0.0207866 0.0207879 0.0204358 0.0204371 0.0211388 0.0211397 0.0207879 0.0207888 0.0211397 0.0211403 0.0207888 0.0207894 0.0207879 0.0207888 0.0204371 0.020438 0.0207888 0.0207894 0.020438 0.0204386 0.0204339 0.0204358 0.0200833 0.020085 0.0204358 0.0204371 0.020085 0.0200863 0.0200833 0.020085 0.0197327 0.0197343 0.020085 0.0200863 0.0197343 0.0197355 0.0204371 0.020438 0.0200863 0.0200871 0.020438 0.0204386 0.0200871 0.0200877 0.0200863 0.0200871 0.0197355 0.0197364 0.0200871 0.0200877 0.0197364 0.0197369 0.0197194 0.0197241 0.0193702 0.0193744 0.0197241 0.0197277 0.0193744 0.0193777 0.0193702 0.0193744 0.0190211 0.0190248 0.0193744 0.0193777 0.0190248 0.0190277 0.0197277 0.0197306 0.0193777 0.0193803 0.0197306 0.0197327 0.0193803 0.0193822 0.0193777 0.0193803 0.0190277 0.01903 0.0193803 0.0193822 0.01903 0.0190318 0.0190211 0.0190248 0.0186722 0.0186753 0.0190248 0.0190277 0.0186753 0.0186779 0.0186722 0.0186753 0.0183233 0.0183259 0.0186753 0.0186779 0.0183259 0.0183281 0.0190277 0.01903 0.0186779 0.0186799 0.01903 0.0190318 0.0186799 0.0186815 0.0186779 0.0186799 0.0183281 0.0183298 0.0186799 0.0186815 0.0183298 0.0183312 0.0197327 0.0197343 0.0193822 0.0193837 0.0197343 0.0197355 0.0193837 0.0193848 0.0193822 0.0193837 0.0190318 0.0190332 0.0193837 0.0193848 0.0190332 0.0190342 0.0197355 0.0197364 0.0193848 0.0193856 0.0197364 0.0197369 0.0193856 0.0193862 0.0193848 0.0193856 0.0190342 0.0190349 0.0193856 0.0193862 0.0190349 0.0190354 0.0190318 0.0190332 0.0186815 0.0186827 0.0190332 0.0190342 0.0186827 0.0186836 0.0186815 0.0186827 0.0183312 0.0183323 0.0186827 0.0186836 0.0183323 0.018333 0.0190342 0.0190349 0.0186836 0.0186843 0.0190349 0.0190354 0.0186843 0.0186847 0.0186836 0.0186843 0.018333 0.0183336 0.0186843 0.0186847 0.0183336 0.018334 0.0183008 0.0182992 0.0179597 0.0179573 0.0182992 0.0183008 0.0179573 0.0179577 0.0179597 0.0179573 0.0176176 0.0176147 0.0179573 0.0179577 0.0176147 0.0176142 0.0183008 0.0183041 0.0179577 0.0179598 0.0183041 0.0183082 0.0179598 0.0179627 0.0179577 0.0179598 0.0176142 0.0176153 0.0179598 0.0179627 0.0176153 0.0176171 0.0176176 0.0176147 0.0172744 0.0172713 0.0176147 0.0176142 0.0172713 0.0172702 0.0172744 0.0172713 0.0169302 0.0169273 0.0172713 0.0172702 0.0169273 0.0169258 0.0176142 0.0176153 0.0172702 0.0172704 0.0176153 0.0176171 0.0172704 0.0172714 0.0172702 0.0172704 0.0169258 0.0169253 0.0172704 0.0172714 0.0169253 0.0169255 0.0183082 0.0183124 0.0179627 0.0179659 0.0183124 0.0183165 0.0179659 0.0179691 0.0179627 0.0179659 0.0176171 0.0176194 0.0179659 0.0179691 0.0176194 0.0176216 0.0183165 0.0183201 0.0179691 0.0179719 0.0183201 0.0183233 0.0179719 0.0179745 0.0179691 0.0179719 0.0176216 0.0176238 0.0179719 0.0179745 0.0176238 0.0176257 0.0176171 0.0176194 0.0172714 0.0172727 0.0176194 0.0176216 0.0172727 0.0172742 0.0172714 0.0172727 0.0169255 0.016926 0.0172727 0.0172742 0.016926 0.0169267 0.0176216 0.0176238 0.0172742 0.0172757 0.0176238 0.0176257 0.0172757 0.017277 0.0172742 0.0172757 0.0169267 0.0169275 0.0172757 0.017277 0.0169275 0.0169283 0.0169302 0.0169273 0.016585 0.0165826 0.0169273 0.0169258 0.0165826 0.0165809 0.016585 0.0165826 0.0162389 0.0162372 0.0165826 0.0165809 0.0162372 0.0162355 0.0169258 0.0169253 0.0165809 0.0165799 0.0169253 0.0169255 0.0165799 0.0165794 0.0165809 0.0165799 0.0162355 0.0162341 0.0165799 0.0165794 0.0162341 0.016233 0.0162389 0.0162372 0.0158919 0.0158911 0.0162372 0.0162355 0.0158911 0.0158897 0.0158919 0.0158911 0.0155442 0.0155445 0.0158911 0.0158897 0.0155445 0.0155433 0.0162355 0.0162341 0.0158897 0.015888 0.0162341 0.016233 0.015888 0.0158865 0.0158897 0.015888 0.0155433 0.0155416 0.015888 0.0158865 0.0155416 0.0155397 0.0169255 0.016926 0.0165794 0.0165792 0.016926 0.0169267 0.0165792 0.0165792 0.0165794 0.0165792 0.016233 0.0162322 0.0165792 0.0165792 0.0162322 0.0162316 0.0169267 0.0169275 0.0165792 0.0165794 0.0169275 0.0169283 0.0165794 0.0165796 0.0165792 0.0165794 0.0162316 0.0162311 0.0165794 0.0165796 0.0162311 0.0162308 0.016233 0.0162322 0.0158865 0.0158851 0.0162322 0.0162316 0.0158851 0.0158839 0.0158865 0.0158851 0.0155397 0.0155378 0.0158851 0.0158839 0.0155378 0.015536 0.0162316 0.0162311 0.0158839 0.0158829 0.0162311 0.0162308 0.0158829 0.0158821 0.0158839 0.0158829 0.015536 0.0155345 0.0158829 0.0158821 0.0155345 0.0155332 0.0183233 0.0183259 0.0179745 0.0179766 0.0183259 0.0183281 0.0179766 0.0179784 0.0179745 0.0179766 0.0176257 0.0176274 0.0179766 0.0179784 0.0176274 0.0176288 0.0183281 0.0183298 0.0179784 0.0179798 0.0183298 0.0183312 0.0179798 0.017981 0.0179784 0.0179798 0.0176288 0.0176299 0.0179798 0.017981 0.0176299 0.0176308 0.0176257 0.0176274 0.017277 0.0172782 0.0176274 0.0176288 0.0172782 0.0172792 0.017277 0.0172782 0.0169283 0.016929 0.0172782 0.0172792 0.016929 0.0169296 0.0176288 0.0176299 0.0172792 0.01728 0.0176299 0.0176308 0.01728 0.0172806 0.0172792 0.01728 0.0169296 0.0169301 0.01728 0.0172806 0.0169301 0.0169305 0.0183312 0.0183323 0.017981 0.0179819 0.0183323 0.018333 0.0179819 0.0179825 0.017981 0.0179819 0.0176308 0.0176315 0.0179819 0.0179825 0.0176315 0.017632 0.018333 0.0183336 0.0179825 0.017983 0.0183336 0.018334 0.017983 0.0179834 0.0179825 0.017983 0.017632 0.0176324 0.017983 0.0179834 0.0176324 0.0176327 0.0176308 0.0176315 0.0172806 0.0172812 0.0176315 0.017632 0.0172812 0.0172816 0.0172806 0.0172812 0.0169305 0.0169308 0.0172812 0.0172816 0.0169308 0.0169311 0.017632 0.0176324 0.0172816 0.0172819 0.0176324 0.0176327 0.0172819 0.0172821 0.0172816 0.0172819 0.0169311 0.0169313 0.0172819 0.0172821 0.0169313 0.0169315 0.0169283 0.016929 0.0165796 0.0165798 0.016929 0.0169296 0.0165798 0.01658 0.0165796 0.0165798 0.0162308 0.0162306 0.0165798 0.01658 0.0162306 0.0162305 0.0169296 0.0169301 0.01658 0.0165802 0.0169301 0.0169305 0.0165802 0.0165804 0.01658 0.0165802 0.0162305 0.0162304 0.0165802 0.0165804 0.0162304 0.0162303 0.0162308 0.0162306 0.0158821 0.0158814 0.0162306 0.0162305 0.0158814 0.0158809 0.0158821 0.0158814 0.0155332 0.0155322 0.0158814 0.0158809 0.0155322 0.0155313 0.0162305 0.0162304 0.0158809 0.0158805 0.0162304 0.0162303 0.0158805 0.0158802 0.0158809 0.0158805 0.0155313 0.0155307 0.0158805 0.0158802 0.0155307 0.0155302 0.0169305 0.0169308 0.0165804 0.0165806 0.0169308 0.0169311 0.0165806 0.0165807 0.0165804 0.0165806 0.0162303 0.0162303 0.0165806 0.0165807 0.0162303 0.0162303 0.0169311 0.0169313 0.0165807 0.0165808 0.0169313 0.0169315 0.0165808 0.0165808 0.0165807 0.0165808 0.0162303 0.0162303 0.0165808 0.0165808 0.0162303 0.0162302 0.0162303 0.0162303 0.0158802 0.01588 0.0162303 0.0162303 0.01588 0.0158799 0.0158802 0.01588 0.0155302 0.0155298 0.01588 0.0158799 0.0155298 0.0155295 0.0162303 0.0162303 0.0158799 0.0158797 0.0162303 0.0162302 0.0158797 0.01