# vtk DataFile Version 3.0
#This file was generated by the deal.II library on 2022/1/6 at 21:27:01
ASCII
DATASET UNSTRUCTURED_GRID

POINTS 16384 double
0 0 0
0.1875 0 0
0 0.046875 0
0.1875 0.046875 0
0.1875 0 0
0.375 0 0
0.1875 0.046875 0
0.375 0.046875 0
0 0.046875 0
0.1875 0.046875 0
0 0.09375 0
0.1875 0.09375 0
0.1875 0.046875 0
0.375 0.046875 0
0.1875 0.09375 0
0.375 0.09375 0
0.375 0 0
0.5625 0 0
0.375 0.046875 0
0.5625 0.046875 0
0.5625 0 0
0.75 0 0
0.5625 0.046875 0
0.75 0.046875 0
0.375 0.046875 0
0.5625 0.046875 0
0.375 0.09375 0
0.5625 0.09375 0
0.5625 0.046875 0
0.75 0.046875 0
0.5625 0.09375 0
0.75 0.09375 0
0 0.09375 0
0.1875 0.09375 0
0 0.140625 0
0.1875 0.140625 0
0.1875 0.09375 0
0.375 0.09375 0
0.1875 0.140625 0
0.375 0.140625 0
0 0.140625 0
0.1875 0.140625 0
0 0.1875 0
0.1875 0.1875 0
0.1875 0.140625 0
0.375 0.140625 0
0.1875 0.1875 0
0.375 0.1875 0
0.375 0.09375 0
0.5625 0.09375 0
0.375 0.140625 0
0.5625 0.140625 0
0.5625 0.09375 0
0.75 0.09375 0
0.5625 0.140625 0
0.75 0.140625 0
0.375 0.140625 0
0.5625 0.140625 0
0.375 0.1875 0
0.5625 0.1875 0
0.5625 0.140625 0
0.75 0.140625 0
0.5625 0.1875 0
0.75 0.1875 0
0.75 0 0
0.9375 0 0
0.75 0.046875 0
0.9375 0.046875 0
0.9375 0 0
1.125 0 0
0.9375 0.046875 0
1.125 0.046875 0
0.75 0.046875 0
0.9375 0.046875 0
0.75 0.09375 0
0.9375 0.09375 0
0.9375 0.046875 0
1.125 0.046875 0
0.9375 0.09375 0
1.125 0.09375 0
1.125 0 0
1.3125 0 0
1.125 0.046875 0
1.3125 0.046875 0
1.3125 0 0
1.5 0 0
1.3125 0.046875 0
1.5 0.046875 0
1.125 0.046875 0
1.3125 0.046875 0
1.125 0.09375 0
1.3125 0.09375 0
1.3125 0.046875 0
1.5 0.046875 0
1.3125 0.09375 0
1.5 0.09375 0
0.75 0.09375 0
0.9375 0.09375 0
0.75 0.140625 0
0.9375 0.140625 0
0.9375 0.09375 0
1.125 0.09375 0
0.9375 0.140625 0
1.125 0.140625 0
0.75 0.140625 0
0.9375 0.140625 0
0.75 0.1875 0
0.9375 0.1875 0
0.9375 0.140625 0
1.125 0.140625 0
0.9375 0.1875 0
1.125 0.1875 0
1.125 0.09375 0
1.3125 0.09375 0
1.125 0.140625 0
1.3125 0.140625 0
1.3125 0.09375 0
1.5 0.09375 0
1.3125 0.140625 0
1.5 0.140625 0
1.125 0.140625 0
1.3125 0.140625 0
1.125 0.1875 0
1.3125 0.1875 0
1.3125 0.140625 0
1.5 0.140625 0
1.3125 0.1875 0
1.5 0.1875 0
0 0.1875 0
0.1875 0.1875 0
0 0.234375 0
0.1875 0.234375 0
0.1875 0.1875 0
0.375 0.1875 0
0.1875 0.234375 0
0.375 0.234375 0
0 0.234375 0
0.1875 0.234375 0
0 0.28125 0
0.1875 0.28125 0
0.1875 0.234375 0
0.375 0.234375 0
0.1875 0.28125 0
0.375 0.28125 0
0.375 0.1875 0
0.5625 0.1875 0
0.375 0.234375 0
0.5625 0.234375 0
0.5625 0.1875 0
0.75 0.1875 0
0.5625 0.234375 0
0.75 0.234375 0
0.375 0.234375 0
0.5625 0.234375 0
0.375 0.28125 0
0.5625 0.28125 0
0.5625 0.234375 0
0.75 0.234375 0
0.5625 0.28125 0
0.75 0.28125 0
0 0.28125 0
0.1875 0.28125 0
0 0.328125 0
0.1875 0.328125 0
0.1875 0.28125 0
0.375 0.28125 0
0.1875 0.328125 0
0.375 0.328125 0
0 0.328125 0
0.1875 0.328125 0
0 0.375 0
0.1875 0.375 0
0.1875 0.328125 0
0.375 0.328125 0
0.1875 0.375 0
0.375 0.375 0
0.375 0.28125 0
0.5625 0.28125 0
0.375 0.328125 0
0.5625 0.328125 0
0.5625 0.28125 0
0.75 0.28125 0
0.5625 0.328125 0
0.75 0.328125 0
0.375 0.328125 0
0.5625 0.328125 0
0.375 0.375 0
0.5625 0.375 0
0.5625 0.328125 0
0.75 0.328125 0
0.5625 0.375 0
0.75 0.375 0
0.75 0.1875 0
0.9375 0.1875 0
0.75 0.234375 0
0.9375 0.234375 0
0.9375 0.1875 0
1.125 0.1875 0
0.9375 0.234375 0
1.125 0.234375 0
0.75 0.234375 0
0.9375 0.234375 0
0.75 0.28125 0
0.9375 0.28125 0
0.9375 0.234375 0
1.125 0.234375 0
0.9375 0.28125 0
1.125 0.28125 0
1.125 0.1875 0
1.3125 0.1875 0
1.125 0.234375 0
1.3125 0.234375 0
1.3125 0.1875 0
1.5 0.1875 0
1.3125 0.234375 0
1.5 0.234375 0
1.125 0.234375 0
1.3125 0.234375 0
1.125 0.28125 0
1.3125 0.28125 0
1.3125 0.234375 0
1.5 0.234375 0
1.3125 0.28125 0
1.5 0.28125 0
0.75 0.28125 0
0.9375 0.28125 0
0.75 0.328125 0
0.9375 0.328125 0
0.9375 0.28125 0
1.125 0.28125 0
0.9375 0.328125 0
1.125 0.328125 0
0.75 0.328125 0
0.9375 0.328125 0
0.75 0.375 0
0.9375 0.375 0
0.9375 0.328125 0
1.125 0.328125 0
0.9375 0.375 0
1.125 0.375 0
1.125 0.28125 0
1.3125 0.28125 0
1.125 0.328125 0
1.3125 0.328125 0
1.3125 0.28125 0
1.5 0.28125 0
1.3125 0.328125 0
1.5 0.328125 0
1.125 0.328125 0
1.3125 0.328125 0
1.125 0.375 0
1.3125 0.375 0
1.3125 0.328125 0
1.5 0.328125 0
1.3125 0.375 0
1.5 0.375 0
1.5 0 0
1.6875 0 0
1.5 0.046875 0
1.6875 0.046875 0
1.6875 0 0
1.875 0 0
1.6875 0.046875 0
1.875 0.046875 0
1.5 0.046875 0
1.6875 0.046875 0
1.5 0.09375 0
1.6875 0.09375 0
1.6875 0.046875 0
1.875 0.046875 0
1.6875 0.09375 0
1.875 0.09375 0
1.875 0 0
2.0625 0 0
1.875 0.046875 0
2.0625 0.046875 0
2.0625 0 0
2.25 0 0
2.0625 0.046875 0
2.25 0.046875 0
1.875 0.046875 0
2.0625 0.046875 0
1.875 0.09375 0
2.0625 0.09375 0
2.0625 0.046875 0
2.25 0.046875 0
2.0625 0.09375 0
2.25 0.09375 0
1.5 0.09375 0
1.6875 0.09375 0
1.5 0.140625 0
1.6875 0.140625 0
1.6875 0.09375 0
1.875 0.09375 0
1.6875 0.140625 0
1.875 0.140625 0
1.5 0.140625 0
1.6875 0.140625 0
1.5 0.1875 0
1.6875 0.1875 0
1.6875 0.140625 0
1.875 0.140625 0
1.6875 0.1875 0
1.875 0.1875 0
1.875 0.09375 0
2.0625 0.09375 0
1.875 0.140625 0
2.0625 0.140625 0
2.0625 0.09375 0
2.25 0.09375 0
2.0625 0.140625 0
2.25 0.140625 0
1.875 0.140625 0
2.0625 0.140625 0
1.875 0.1875 0
2.0625 0.1875 0
2.0625 0.140625 0
2.25 0.140625 0
2.0625 0.1875 0
2.25 0.1875 0
2.25 0 0
2.4375 0 0
2.25 0.046875 0
2.4375 0.046875 0
2.4375 0 0
2.625 0 0
2.4375 0.046875 0
2.625 0.046875 0
2.25 0.046875 0
2.4375 0.046875 0
2.25 0.09375 0
2.4375 0.09375 0
2.4375 0.046875 0
2.625 0.046875 0
2.4375 0.09375 0
2.625 0.09375 0
2.625 0 0
2.8125 0 0
2.625 0.046875 0
2.8125 0.046875 0
2.8125 0 0
3 0 0
2.8125 0.046875 0
3 0.046875 0
2.625 0.046875 0
2.8125 0.046875 0
2.625 0.09375 0
2.8125 0.09375 0
2.8125 0.046875 0
3 0.046875 0
2.8125 0.09375 0
3 0.09375 0
2.25 0.09375 0
2.4375 0.09375 0
2.25 0.140625 0
2.4375 0.140625 0
2.4375 0.09375 0
2.625 0.09375 0
2.4375 0.140625 0
2.625 0.140625 0
2.25 0.140625 0
2.4375 0.140625 0
2.25 0.1875 0
2.4375 0.1875 0
2.4375 0.140625 0
2.625 0.140625 0
2.4375 0.1875 0
2.625 0.1875 0
2.625 0.09375 0
2.8125 0.09375 0
2.625 0.140625 0
2.8125 0.140625 0
2.8125 0.09375 0
3 0.09375 0
2.8125 0.140625 0
3 0.140625 0
2.625 0.140625 0
2.8125 0.140625 0
2.625 0.1875 0
2.8125 0.1875 0
2.8125 0.140625 0
3 0.140625 0
2.8125 0.1875 0
3 0.1875 0
1.5 0.1875 0
1.6875 0.1875 0
1.5 0.234375 0
1.6875 0.234375 0
1.6875 0.1875 0
1.875 0.1875 0
1.6875 0.234375 0
1.875 0.234375 0
1.5 0.234375 0
1.6875 0.234375 0
1.5 0.28125 0
1.6875 0.28125 0
1.6875 0.234375 0
1.875 0.234375 0
1.6875 0.28125 0
1.875 0.28125 0
1.875 0.1875 0
2.0625 0.1875 0
1.875 0.234375 0
2.0625 0.234375 0
2.0625 0.1875 0
2.25 0.1875 0
2.0625 0.234375 0
2.25 0.234375 0
1.875 0.234375 0
2.0625 0.234375 0
1.875 0.28125 0
2.0625 0.28125 0
2.0625 0.234375 0
2.25 0.234375 0
2.0625 0.28125 0
2.25 0.28125 0
1.5 0.28125 0
1.6875 0.28125 0
1.5 0.328125 0
1.6875 0.328125 0
1.6875 0.28125 0
1.875 0.28125 0
1.6875 0.328125 0
1.875 0.328125 0
1.5 0.328125 0
1.6875 0.328125 0
1.5 0.375 0
1.6875 0.375 0
1.6875 0.328125 0
1.875 0.328125 0
1.6875 0.375 0
1.875 0.375 0
1.875 0.28125 0
2.0625 0.28125 0
1.875 0.328125 0
2.0625 0.328125 0
2.0625 0.28125 0
2.25 0.28125 0
2.0625 0.328125 0
2.25 0.328125 0
1.875 0.328125 0
2.0625 0.328125 0
1.875 0.375 0
2.0625 0.375 0
2.0625 0.328125 0
2.25 0.328125 0
2.0625 0.375 0
2.25 0.375 0
2.25 0.1875 0
2.4375 0.1875 0
2.25 0.234375 0
2.4375 0.234375 0
2.4375 0.1875 0
2.625 0.1875 0
2.4375 0.234375 0
2.625 0.234375 0
2.25 0.234375 0
2.4375 0.234375 0
2.25 0.28125 0
2.4375 0.28125 0
2.4375 0.234375 0
2.625 0.234375 0
2.4375 0.28125 0
2.625 0.28125 0
2.625 0.1875 0
2.8125 0.1875 0
2.625 0.234375 0
2.8125 0.234375 0
2.8125 0.1875 0
3 0.1875 0
2.8125 0.234375 0
3 0.234375 0
2.625 0.234375 0
2.8125 0.234375 0
2.625 0.28125 0
2.8125 0.28125 0
2.8125 0.234375 0
3 0.234375 0
2.8125 0.28125 0
3 0.28125 0
2.25 0.28125 0
2.4375 0.28125 0
2.25 0.328125 0
2.4375 0.328125 0
2.4375 0.28125 0
2.625 0.28125 0
2.4375 0.328125 0
2.625 0.328125 0
2.25 0.328125 0
2.4375 0.328125 0
2.25 0.375 0
2.4375 0.375 0
2.4375 0.328125 0
2.625 0.328125 0
2.4375 0.375 0
2.625 0.375 0
2.625 0.28125 0
2.8125 0.28125 0
2.625 0.328125 0
2.8125 0.328125 0
2.8125 0.28125 0
3 0.28125 0
2.8125 0.328125 0
3 0.328125 0
2.625 0.328125 0
2.8125 0.328125 0
2.625 0.375 0
2.8125 0.375 0
2.8125 0.328125 0
3 0.328125 0
2.8125 0.375 0
3 0.375 0
0 0.375 0
0.1875 0.375 0
0 0.421875 0
0.1875 0.421875 0
0.1875 0.375 0
0.375 0.375 0
0.1875 0.421875 0
0.375 0.421875 0
0 0.421875 0
0.1875 0.421875 0
0 0.46875 0
0.1875 0.46875 0
0.1875 0.421875 0
0.375 0.421875 0
0.1875 0.46875 0
0.375 0.46875 0
0.375 0.375 0
0.5625 0.375 0
0.375 0.421875 0
0.5625 0.421875 0
0.5625 0.375 0
0.75 0.375 0
0.5625 0.421875 0
0.75 0.421875 0
0.375 0.421875 0
0.5625 0.421875 0
0.375 0.46875 0
0.5625 0.46875 0
0.5625 0.421875 0
0.75 0.421875 0
0.5625 0.46875 0
0.75 0.46875 0
0 0.46875 0
0.1875 0.46875 0
0 0.515625 0
0.1875 0.515625 0
0.1875 0.46875 0
0.375 0.46875 0
0.1875 0.515625 0
0.375 0.515625 0
0 0.515625 0
0.1875 0.515625 0
0 0.5625 0
0.1875 0.5625 0
0.1875 0.515625 0
0.375 0.515625 0
0.1875 0.5625 0
0.375 0.5625 0
0.375 0.46875 0
0.5625 0.46875 0
0.375 0.515625 0
0.5625 0.515625 0
0.5625 0.46875 0
0.75 0.46875 0
0.5625 0.515625 0
0.75 0.515625 0
0.375 0.515625 0
0.5625 0.515625 0
0.375 0.5625 0
0.5625 0.5625 0
0.5625 0.515625 0
0.75 0.515625 0
0.5625 0.5625 0
0.75 0.5625 0
0.75 0.375 0
0.9375 0.375 0
0.75 0.421875 0
0.9375 0.421875 0
0.9375 0.375 0
1.125 0.375 0
0.9375 0.421875 0
1.125 0.421875 0
0.75 0.421875 0
0.9375 0.421875 0
0.75 0.46875 0
0.9375 0.46875 0
0.9375 0.421875 0
1.125 0.421875 0
0.9375 0.46875 0
1.125 0.46875 0
1.125 0.375 0
1.3125 0.375 0
1.125 0.421875 0
1.3125 0.421875 0
1.3125 0.375 0
1.5 0.375 0
1.3125 0.421875 0
1.5 0.421875 0
1.125 0.421875 0
1.3125 0.421875 0
1.125 0.46875 0
1.3125 0.46875 0
1.3125 0.421875 0
1.5 0.421875 0
1.3125 0.46875 0
1.5 0.46875 0
0.75 0.46875 0
0.9375 0.46875 0
0.75 0.515625 0
0.9375 0.515625 0
0.9375 0.46875 0
1.125 0.46875 0
0.9375 0.515625 0
1.125 0.515625 0
0.75 0.515625 0
0.9375 0.515625 0
[...]
POINT_DATA 16384
SCALARS x_displacement double 1
LOOKUP_TABLE default
0 0.0237494 0 0.0220684 0.0237494 0.035917 0.0220684 0.0363622 0 0.0220684 0 0.0208538 0.0220684 0.0363622 0.0208538 0.0352022 0.035917 0.040666 0.0363622 0.0401484 0.040666 0.0365692 0.0401484 0.0360181 0.0363622 0.0401484 0.0352022 0.0389999 0.0401484 0.0360181 0.0389999 0.03508 0 0.0208538 0 0.0196624 0.0208538 0.0352022 0.0196624 0.0328308 0 0.0196624 0 0.0185168 0.0196624 0.0328308 0.0185168 0.0300489 0.0352022 0.0389999 0.0328308 0.0370059 0.0389999 0.03508 0.0370059 0.0337785 0.0328308 0.0370059 0.0300489 0.0339808 0.0370059 0.0337785 0.0339808 0.0322155 0.0365692 0.0330861 0.0360181 0.0326834 0.0330861 0.0310209 0.0326834 0.0307595 0.0360181 0.0326834 0.03508 0.0321108 0.0326834 0.0307595 0.0321108 0.030384 0.0310209 0.0298585 0.0307595 0.0296161 0.0298585 0.0291812 0.0296161 0.0289332 0.0307595 0.0296161 0.030384 0.029311 0.0296161 0.0289332 0.029311 0.0286471 0.03508 0.0321108 0.0337785 0.0313917 0.0321108 0.030384 0.0313917 0.029913 0.0337785 0.0313917 0.0322155 0.0305615 0.0313917 0.029913 0.0305615 0.0293581 0.030384 0.029311 0.029913 0.0289455 0.029311 0.0286471 0.0289455 0.0283247 0.029913 0.0289455 0.0293581 0.0285268 0.0289455 0.0283247 0.0285268 0.0279679 0 0.0185168 0 0.0174438 0.0185168 0.0300489 0.0174438 0.0272309 0 0.0174438 0 0.0164204 0.0174438 0.0272309 0.0164204 0.0249309 0.0300489 0.0339808 0.0272309 0.0307892 0.0339808 0.0322155 0.0307892 0.0306043 0.0272309 0.0307892 0.0249309 0.028233 0.0307892 0.0306043 0.028233 0.0289671 0 0.0164204 0 0.0155135 0.0164204 0.0249309 0.0155135 0.0230624 0 0.0155135 0 0.0147399 0.0155135 0.0230624 0.0147399 0.0215412 0.0249309 0.028233 0.0230624 0.0261801 0.028233 0.0289671 0.0261801 0.027422 0.0230624 0.0261801 0.0215412 0.0244856 0.0261801 0.027422 0.0244856 0.0260139 0.0322155 0.0305615 0.0306043 0.0296307 0.0305615 0.0293581 0.0296307 0.0287384 0.0306043 0.0296307 0.0289671 0.0286448 0.0296307 0.0287384 0.0286448 0.0280672 0.0293581 0.0285268 0.0287384 0.0280614 0.0285268 0.0279679 0.0280614 0.0275798 0.0287384 0.0280614 0.0280672 0.0275572 0.0280614 0.0275798 0.0275572 0.027164 0.0289671 0.0286448 0.027422 0.027628 0.0286448 0.0280672 0.027628 0.0273616 0.027422 0.027628 0.0260139 0.0266143 0.027628 0.0273616 0.0266143 0.0266344 0.0280672 0.0275572 0.0273616 0.0270218 0.0275572 0.027164 0.0270218 0.0267246 0.0273616 0.0270218 0.0266344 0.0264634 0.0270218 0.0267246 0.0264634 0.0262657 0.0291812 0.0287851 0.0289332 0.0285243 0.0287851 0.02856 0.0285243 0.0282845 0.0289332 0.0285243 0.0286471 0.0282399 0.0285243 0.0282845 0.0282399 0.0279942 0.02856 0.0284399 0.0282845 0.0281505 0.0284399 0.0283843 0.0281505 0.0280826 0.0282845 0.0281505 0.0279942 0.0278518 0.0281505 0.0280826 0.0278518 0.0277751 0.0286471 0.0282399 0.0283247 0.0279322 0.0282399 0.0279942 0.0279322 0.0276891 0.0283247 0.0279322 0.0279679 0.0276024 0.0279322 0.0276891 0.0276024 0.0273696 0.0279942 0.0278518 0.0276891 0.0275436 0.0278518 0.0277751 0.0275436 0.0274616 0.0276891 0.0275436 0.0273696 0.0272262 0.0275436 0.0274616 0.0272262 0.0271422 0.0283843 0.0283678 0.0280826 0.0280555 0.0283678 0.0283738 0.0280555 0.0280528 0.0280826 0.0280555 0.0277751 0.0277397 0.0280555 0.0280528 0.0277397 0.0277298 0.0283738 0.028392 0.0280528 0.0280638 0.028392 0.0284157 0.0280638 0.0280819 0.0280528 0.0280638 0.0277298 0.0277348 0.0280638 0.0280819 0.0277348 0.0277477 0.0277751 0.0277397 0.0274616 0.0274204 0.0277397 0.0277298 0.0274204 0.0274048 0.0274616 0.0274204 0.0271422 0.0270973 0.0274204 0.0274048 0.0270973 0.0270774 0.0277298 0.0277348 0.0274048 0.0274046 0.0277348 0.0277477 0.0274046 0.0274131 0.0274048 0.0274046 0.0270774 0.0270731 0.0274046 0.0274131 0.0270731 0.0270778 0.0279679 0.0276024 0.0275798 0.0272518 0.0276024 0.0273696 0.0272518 0.0270363 0.0275798 0.0272518 0.027164 0.0268822 0.0272518 0.0270363 0.0268822 0.02669 0.0273696 0.0272262 0.0270363 0.0268996 0.0272262 0.0271422 0.0268996 0.0268168 0.0270363 0.0268996 0.02669 0.0265642 0.0268996 0.0268168 0.0265642 0.0264856 0.027164 0.0268822 0.0267246 0.0264955 0.0268822 0.02669 0.0264955 0.0263317 0.0267246 0.0264955 0.0262657 0.0260941 0.0264955 0.0263317 0.0260941 0.0259627 0.02669 0.0265642 0.0263317 0.0262206 0.0265642 0.0264856 0.0262206 0.0261488 0.0263317 0.0262206 0.0259627 0.0258693 0.0262206 0.0261488 0.0258693 0.0258066 0.0271422 0.0270973 0.0268168 0.0267704 0.0270973 0.0270774 0.0267704 0.0267477 0.0268168 0.0267704 0.0264856 0.0264397 0.0267704 0.0267477 0.0264397 0.0264156 0.0270774 0.0270731 0.0267477 0.0267402 0.0270731 0.0270778 0.0267402 0.0267417 0.0267477 0.0267402 0.0264156 0.0264058 0.0267402 0.0267417 0.0264058 0.0264049 0.0264856 0.0264397 0.0261488 0.0261052 0.0264397 0.0264156 0.0261052 0.026081 0.0261488 0.0261052 0.0258066 0.0257671 0.0261052 0.026081 0.0257671 0.0257441 0.0264156 0.0264058 0.026081 0.0260699 0.0264058 0.0264049 0.0260699 0.0260671 0.026081 0.0260699 0.0257441 0.0257324 0.0260699 0.0260671 0.0257324 0.0257283 0 0.0147399 0 0.0140928 0.0147399 0.0215412 0.0140928 0.0202967 0 0.0140928 0 0.013556 0.0140928 0.0202967 0.013556 0.0192727 0.0215412 0.0244856 0.0202967 0.0230652 0.0244856 0.0260139 0.0230652 0.0247472 0.0202967 0.0230652 0.0192727 0.0218631 0.0230652 0.0247472 0.0218631 0.023614 0 0.013556 0 0.0131115 0.013556 0.0192727 0.0131115 0.0184254 0 0.0131115 0 0.0127426 0.0131115 0.0184254 0.0127426 0.0177198 0.0192727 0.0218631 0.0184254 0.0208384 0.0218631 0.023614 0.0208384 0.0226021 0.0184254 0.0208384 0.0177198 0.0199599 0.0208384 0.0226021 0.0199599 0.0216991 0.0260139 0.0266143 0.0247472 0.0256308 0.0266143 0.0266344 0.0256308 0.0258986 0.0247472 0.0256308 0.023614 0.0246941 0.0256308 0.0258986 0.0246941 0.0251666 0.0266344 0.0264634 0.0258986 0.0258896 0.0264634 0.0262657 0.0258896 0.0257915 0.0258986 0.0258896 0.0251666 0.0253071 0.0258896 0.0257915 0.0253071 0.0253063 0.023614 0.0246941 0.0226021 0.0238128 0.0246941 0.0251666 0.0238128 0.0244484 0.0226021 0.0238128 0.0216991 0.0229903 0.0238128 0.0244484 0.0229903 0.0237517 0.0251666 0.0253071 0.0244484 0.0247223 0.0253071 0.0253063 0.0247223 0.0248141 0.0244484 0.0247223 0.0237517 0.0241408 0.0247223 0.0248141 0.0241408 0.0243184 0 0.0127426 0 0.0124351 0.0127426 0.0177198 0.0124351 0.0171284 0 0.0124351 0 0.0121772 0.0124351 0.0171284 0.0121772 0.0166294 0.0177198 0.0199599 0.0171284 0.0192029 0.0199599 0.0216991 0.0192029 0.0208927 0.0171284 0.0192029 0.0166294 0.0185475 0.0192029 0.0208927 0.0185475 0.0201718 0 0.0121772 0 0.0119592 0.0121772 0.0166294 0.0119592 0.0162053 0 0.0119592 0 0.0117737 0.0119592 0.0162053 0.0117737 0.0158423 0.0166294 0.0185475 0.0162053 0.0179771 0.0185475 0.0201718 0.0179771 0.0195263 0.0162053 0.0179771 0.0158423 0.0174784 0.0179771 0.0195263 0.0174784 0.0189469 0.0216991 0.0229903 0.0208927 0.0222267 0.0229903 0.0237517 0.0222267 0.0230814 0.0208927 0.0222267 0.0201718 0.0215202 0.0222267 0.0230814 0.0215202 0.0224409 0.0237517 0.0241408 0.0230814 0.0235674 0.0241408 0.0243184 0.0235674 0.0238226 0.0230814 0.0235674 0.0224409 0.0230059 0.0235674 0.0238226 0.0230059 0.0233297 0.0201718 0.0215202 0.0195263 0.0208678 0.0215202 0.0224409 0.0208678 0.0218317 0.0195263 0.0208678 0.0189469 0.0202659 0.0208678 0.0218317 0.0202659 0.0212544 0.0224409 0.0230059 0.0218317 0.0224592 0.0230059 0.0233297 0.0224592 0.0228422 0.0218317 0.0224592 0.0212544 0.0219295 0.0224592 0.0228422 0.0219295 0.0223621 0.0262657 0.0260941 0.0257915 0.0256801 0.0260941 0.0259627 0.0256801 0.0255842 0.0257915 0.0256801 0.0253063 0.0252561 0.0256801 0.0255842 0.0252561 0.0251976 0.0259627 0.0258693 0.0255842 0.0255111 0.0258693 0.0258066 0.0255111 0.0254596 0.0255842 0.0255111 0.0251976 0.0251468 0.0255111 0.0254596 0.0251468 0.0251079 0.0253063 0.0252561 0.0248141 0.0248245 0.0252561 0.0251976 0.0248245 0.0248044 0.0248141 0.0248245 0.0243184 0.0243875 0.0248245 0.0248044 0.0243875 0.0244058 0.0251976 0.0251468 0.0248044 0.0247771 0.0251468 0.0251079 0.0247771 0.0247523 0.0248044 0.0247771 0.0244058 0.0244029 0.0247771 0.0247523 0.0244029 0.024393 0.0258066 0.0257671 0.0254596 0.0254255 0.0257671 0.0257441 0.0254255 0.0254047 0.0254596 0.0254255 0.0251079 0.0250807 0.0254255 0.0254047 0.0250807 0.0250631 0.0257441 0.0257324 0.0254047 0.0253934 0.0257324 0.0257283 0.0253934 0.0253885 0.0254047 0.0253934 0.0250631 0.0250529 0.0253934 0.0253885 0.0250529 0.0250478 0.0251079 0.0250807 0.0247523 0.0247329 0.0250807 0.0250631 0.0247329 0.0247194 0.0247523 0.0247329 0.024393 0.0243825 0.0247329 0.0247194 0.0243825 0.0243737 0.0250631 0.0250529 0.0247194 0.0247108 0.0250529 0.0250478 0.0247108 0.024706 0.0247194 0.0247108 0.0243737 0.0243673 0.0247108 0.024706 0.0243673 0.0243632 0.0243184 0.0243875 0.0238226 0.0239473 0.0243875 0.0244058 0.0239473 0.0240034 0.0238226 0.0239473 0.0233297 0.0235061 0.0239473 0.0240034 0.0235061 0.0235985 0.0244058 0.0244029 0.0240034 0.0240251 0.0244029 0.024393 0.0240251 0.0240308 0.0240034 0.0240251 0.0235985 0.0236446 0.0240251 0.0240308 0.0236446 0.023666 0.0233297 0.0235061 0.0228422 0.0230656 0.0235061 0.0235985 0.0230656 0.0231923 0.0228422 0.0230656 0.0223621 0.0226276 0.0230656 0.0231923 0.0226276 0.0227861 0.0235985 0.0236446 0.0231923 0.0232622 0.0236446 0.023666 0.0232622 0.0232993 0.0231923 0.0232622 0.0227861 0.0228786 0.0232622 0.0232993 0.0228786 0.0229312 0.024393 0.0243825 0.0240308 0.0240296 0.0243825 0.0243737 0.0240296 0.0240262 0.0240308 0.0240296 0.023666 0.0236747 0.0240296 0.0240262 0.0236747 0.023677 0.0243737 0.0243673 0.0240262 0.0240225 0.0243673 0.0243632 0.0240225 0.0240195 0.0240262 0.0240225 0.023677 0.0236765 0.0240225 0.0240195 0.0236765 0.0236749 0.023666 0.0236747 0.0232993 0.023318 0.0236747 0.023677 0.023318 0.0233264 0.0232993 0.023318 0.0229312 0.0229599 0.023318 0.0233264 0.0229599 0.0229746 0.023677 0.0236765 0.0233264 0.0233293 0.0236765 0.0236749 0.0233293 0.0233294 0.0233264 0.0233293 0.0229746 0.0229811 0.0233293 0.0233294 0.0229811 0.022983 0.0284157 0.0284408 0.0280819 0.0281025 0.0284408 0.028465 0.0281025 0.0281232 0.0280819 0.0281025 0.0277477 0.0277643 0.0281025 0.0281232 0.0277643 0.0277817 0.028465 0.0284869 0.0281232 0.0281425 0.0284869 0.0285059 0.0281425 0.0281596 0.0281232 0.0281425 0.0277817 0.0277985 0.0281425 0.0281596 0.0277985 0.0278136 0.0277477 0.0277643 0.0274131 0.0274259 0.0277643 0.0277817 0.0274259 0.0274404 0.0274131 0.0274259 0.0270778 0.0270874 0.0274259 0.0274404 0.0270874 0.027099 0.0277817 0.0277985 0.0274404 0.0274547 0.0277985 0.0278136 0.0274547 0.0274679 0.0274404 0.0274547 0.027099 0.0271111 0.0274547 0.0274679 0.0271111 0.0271225 0.0285059 0.028522 0.0281596 0.0281742 0.028522 0.0285352 0.0281742 0.0281863 0.0281596 0.0281742 0.0278136 0.0278268 0.0281742 0.0281863 0.0278268 0.0278378 0.0285352 0.0285458 0.0281863 0.0281962 0.0285458 0.0285542 0.0281962 0.028204 0.0281863 0.0281962 0.0278378 0.0278469 0.0281962 0.028204 0.0278469 0.0278542 0.0278136 0.0278268 0.0274679 0.0274796 0.0278268 0.0278378 0.0274796 0.0274896 0.0274679 0.0274796 0.0271225 0.0271327 0.0274796 0.0274896 0.0271327 0.0271416 0.0278378 0.0278469 0.0274896 0.0274978 0.0278469 0.0278542 0.0274978 0.0275045 0.0274896 0.0274978 0.0271416 0.027149 0.0274978 0.0275045 0.027149 0.027155 0.0270778 0.0270874 0.0267417 0.0267484 0.0270874 0.027099 0.0267484 0.0267576 0.0267417 0.0267484 0.0264049 0.0264091 0.0267484 0.0267576 0.0264091 0.026416 0.027099 0.0271111 0.0267576 0.0267675 0.0271111 0.0271225 0.0267675 0.0267772 0.0267576 0.0267675 0.026416 0.026424 0.0267675 0.0267772 0.026424 0.026432 0.0264049 0.0264091 0.0260671 0.0260692 0.0264091 0.026416 0.0260692 0.0260742 0.0260671 0.0260692 0.0257283 0.0257289 0.0260692 0.0260742 0.0257289 0.0257321 0.026416 0.026424 0.0260742 0.0260804 0.026424 0.026432 0.0260804 0.0260869 0.0260742 0.0260804 0.0257321 0.0257367 0.0260804 0.0260869 0.0257367 0.0257418 0.0271225 0.0271327 0.0267772 0.026786 0.0271327 0.0271416 0.026786 0.0267938 0.0267772 0.026786 0.026432 0.0264395 0.026786 0.0267938 0.0264395 0.0264462 0.0271416 0.027149 0.0267938 0.0268004 0.027149 0.027155 0.0268004 0.0268058 0.0267938 0.0268004 0.0264462 0.0264519 0.0268004 0.0268058 0.0264519 0.0264566 0.026432 0.0264395 0.0260869 0.0260931 0.0264395 0.0264462 0.0260931 0.0260987 0.0260869 0.0260931 0.0257418 0.0257467 0.0260931 0.0260987 0.0257467 0.0257513 0.0264462 0.0264519 0.0260987 0.0261036 0.0264519 0.0264566 0.0261036 0.0261077 0.0260987 0.0261036 0.0257513 0.0257553 0.0261036 0.0261077 0.0257553 0.0257588 0.0285542 0.0285606 0.028204 0.0282101 0.0285606 0.0285655 0.0282101 0.0282148 0.028204 0.0282101 0.0278542 0.0278599 0.0282101 0.0282148 0.0278599 0.0278643 0.0285655 0.0285691 0.0282148 0.0282183 0.0285691 0.0285718 0.0282183 0.0282209 0.0282148 0.0282183 0.0278643 0.0278676 0.0282183 0.0282209 0.0278676 0.0278701 0.0278542 0.0278599 0.0275045 0.0275098 0.0278599 0.0278643 0.0275098 0.0275139 0.0275045 0.0275098 0.027155 0.0271599 0.0275098 0.0275139 0.0271599 0.0271637 0.0278643 0.0278676 0.0275139 0.027517 0.0278676 0.0278701 0.027517 0.0275194 0.0275139 0.027517 0.0271637 0.0271666 0.027517 0.0275194 0.0271666 0.0271687 0.0285718 0.0285736 0.0282209 0.0282227 0.0285736 0.0285749 0.0282227 0.028224 0.0282209 0.0282227 0.0278701 0.0278719 0.0282227 0.028224 0.0278719 0.0278731 0.0285749 0.0285758 0.028224 0.0282249 0.0285758 0.0285763 0.0282249 0.0282254 0.028224 0.0282249 0.0278731 0.027874 0.0282249 0.0282254 0.027874 0.0278745 0.0278701 0.0278719 0.0275194 0.0275211 0.0278719 0.0278731 0.0275211 0.0275223 0.0275194 0.0275211 0.0271687 0.0271704 0.0275211 0.0275223 0.0271704 0.0271715 0.0278731 0.027874 0.0275223 0.0275231 0.027874 0.0278745 0.0275231 0.0275237 0.0275223 0.0275231 0.0271715 0.0271723 0.0275231 0.0275237 0.0271723 0.0271729 0.027155 0.0271599 0.0268058 0.0268101 0.0271599 0.0271637 0.0268101 0.0268136 0.0268058 0.0268101 0.0264566 0.0264605 0.0268101 0.0268136 0.0264605 0.0264636 0.0271637 0.0271666 0.0268136 0.0268162 0.0271666 0.0271687 0.0268162 0.0268182 0.0268136 0.0268162 0.0264636 0.0264659 0.0268162 0.0268182 0.0264659 0.0264678 0.0264566 0.0264605 0.0261077 0.026111 0.0264605 0.0264636 0.026111 0.0261137 0.0261077 0.026111 0.0257588 0.0257616 0.026111 0.0261137 0.0257616 0.0257639 0.0264636 0.0264659 0.0261137 0.0261158 0.0264659 0.0264678 0.0261158 0.0261174 0.0261137 0.0261158 0.0257639 0.0257657 0.0261158 0.0261174 0.0257657 0.0257671 0.0271687 0.0271704 0.0268182 0.0268197 0.0271704 0.0271715 0.0268197 0.0268208 0.0268182 0.0268197 0.0264678 0.0264691 0.0268197 0.0268208 0.0264691 0.0264701 0.0271715 0.0271723 0.0268208 0.0268216 0.0271723 0.0271729 0.0268216 0.0268221 0.0268208 0.0268216 0.0264701 0.0264708 0.0268216 0.0268221 0.0264708 0.0264713 0.0264678 0.0264691 0.0261174 0.0261186 0.0264691 0.0264701 0.0261186 0.0261195 0.0261174 0.0261186 0.0257671 0.0257681 0.0261186 0.0261195 0.0257681 0.0257689 0.0264701 0.0264708 0.0261195 0.0261201 0.0264708 0.0264713 0.0261201 0.0261206 0.0261195 0.0261201 0.0257689 0.0257695 0.0261201 0.0261206 0.0257695 0.0257699 0.0257283 0.0257289 0.0253885 0.0253879 0.0257289 0.0257321 0.0253879 0.0253897 0.0253885 0.0253879 0.0250478 0.0250462 0.0253879 0.0253897 0.0250462 0.0250469 0.0257321 0.0257367 0.0253897 0.0253928 0.0257367 0.0257418 0.0253928 0.0253966 0.0253897 0.0253928 0.0250469 0.0250488 0.0253928 0.0253966 0.0250488 0.0250513 0.0250478 0.0250462 0.024706 0.0247039 0.0250462 0.0250469 0.0247039 0.0247036 0.024706 0.0247039 0.0243632 0.0243609 0.0247039 0.0247036 0.0243609 0.02436 0.0250469 0.0250488 0.0247036 0.0247045 0.0250488 0.0250513 0.0247045 0.0247059 0.0247036 0.0247045 0.02436 0.0243599 0.0247045 0.0247059 0.0243599 0.0243604 0.0257418 0.0257467 0.0253966 0.0254004 0.0257467 0.0257513 0.0254004 0.025404 0.0253966 0.0254004 0.0250513 0.025054 0.0254004 0.025404 0.025054 0.0250567 0.0257513 0.0257553 0.025404 0.0254072 0.0257553 0.0257588 0.0254072 0.02541 0.025404 0.0254072 0.0250567 0.0250591 0.0254072 0.02541 0.0250591 0.0250612 0.0250513 0.025054 0.0247059 0.0247077 0.025054 0.0250567 0.0247077 0.0247094 0.0247059 0.0247077 0.0243604 0.0243612 0.0247077 0.0247094 0.0243612 0.0243621 0.0250567 0.0250591 0.0247094 0.0247111 0.0250591 0.0250612 0.0247111 0.0247125 0.0247094 0.0247111 0.0243621 0.024363 0.0247111 0.0247125 0.024363 0.0243639 0.0243632 0.0243609 0.0240195 0.0240173 0.0243609 0.02436 0.0240173 0.0240159 0.0240195 0.0240173 0.0236749 0.023673 0.0240173 0.0240159 0.023673 0.0236713 0.02436 0.0243599 0.0240159 0.0240151 0.0243599 0.0243604 0.0240151 0.0240147 0.0240159 0.0240151 0.0236713 0.0236699 0.0240151 0.0240147 0.0236699 0.0236688 0.0236749 0.023673 0.0233294 0.0233281 0.023673 0.0236713 0.0233281 0.0233263 0.0233294 0.0233281 0.022983 0.0229825 0.0233281 0.0233263 0.0229825 0.0229808 0.0236713 0.0236699 0.0233263 0.0233244 0.0236699 0.0236688 0.0233244 0.0233226 0.0233263 0.0233244 0.0229808 0.0229786 0.0233244 0.0233226 0.0229786 0.0229763 0.0243604 0.0243612 0.0240147 0.0240146 0.0243612 0.0243621 0.0240146 0.0240147 0.0240147 0.0240146 0.0236688 0.0236679 0.0240146 0.0240147 0.0236679 0.0236673 0.0243621 0.024363 0.0240147 0.024015 0.024363 0.0243639 0.024015 0.0240152 0.0240147 0.024015 0.0236673 0.0236669 0.024015 0.0240152 0.0236669 0.0236666 0.0236688 0.0236679 0.0233226 0.0233211 0.0236679 0.0236673 0.0233211 0.0233198 0.0233226 0.0233211 0.0229763 0.0229741 0.0233211 0.0233198 0.0229741 0.0229721 0.0236673 0.0236669 0.0233198 0.0233187 0.0236669 0.0236666 0.0233187 0.0233179 0.0233198 0.0233187 0.0229721 0.0229705 0.0233187 0.0233179 0.0229705 0.0229691 0.0257588 0.0257616 0.02541 0.0254123 0.0257616 0.0257639 0.0254123 0.0254142 0.02541 0.0254123 0.0250612 0.025063 0.0254123 0.0254142 0.025063 0.0250645 0.0257639 0.0257657 0.0254142 0.0254156 0.0257657 0.0257671 0.0254156 0.0254168 0.0254142 0.0254156 0.0250645 0.0250657 0.0254156 0.0254168 0.0250657 0.0250666 0.0250612 0.025063 0.0247125 0.0247138 0.025063 0.0250645 0.0247138 0.0247149 0.0247125 0.0247138 0.0243639 0.0243646 0.0247138 0.0247149 0.0243646 0.0243653 0.0250645 0.0250657 0.0247149 0.0247157 0.0250657 0.0250666 0.0247157 0.0247164 0.0247149 0.0247157 0.0243653 0.0243658 0.0247157 0.0247164 0.0243658 0.0243663 0.0257671 0.0257681 0.0254168 0.0254177 0.0257681 0.0257689 0.0254177 0.0254184 0.0254168 0.0254177 0.0250666 0.0250673 0.0254177 0.0254184 0.0250673 0.0250678 0.0257689 0.0257695 0.0254184 0.0254188 0.0257695 0.0257699 0.0254188 0.0254192 0.0254184 0.0254188 0.0250678 0.0250682 0.0254188 0.0254192 0.0250682 0.0250685 0.0250666 0.0250673 0.0247164 0.0247169 0.0250673 0.0250678 0.0247169 0.0247174 0.0247164 0.0247169 0.0243663 0.0243666 0.0247169 0.0247174 0.0243666 0.0243669 0.0250678 0.0250682 0.0247174 0.0247177 0.0250682 0.0250685 0.0247177 0.0247179 0.0247174 0.0247177 0.0243669 0.0243671 0.0247177 0.0247179 0.0243671 0.0243672 0.0243639 0.0243646 0.0240152 0.0240155 0.0243646 0.0243653 0.0240155 0.0240157 0.0240152 0.0240155 0.0236666 0.0236663 0.0240155 0.0240157 0.0236663 0.0236662 0.0243653 0.0243658 0.0240157 0.024016 0.0243658 0.0243663 0.024016 0.0240162 0.0240157 0.024016 0.0236662 0.0236661 0.024016 0.0240162 0.0236661 0.0236661 0.0236666 0.0236663 0.0233179 0.0233172 0.0236663 0.0236662 0.0233172 0.0233167 0.0233179 0.0233172 0.0229691 0.022968 0.0233172 0.0233167 0.022968 0.0229671 0.0236662 0.0236661 0.0233167 0.0233163 0.0236661 0.0236661 0.0233163 0.023316 0.0233167 0.0233163 0.0229671 0.0229664 0.0233163 0.023316 0.0229664 0.0229659 0.0243663 0.0243666 0.0240162 0.0240163 0.0243666 0.0243669 0.0240163 0.0240164 0.0240162 0.0240163 0.0236661 0.023666 0.0240163 0.0240164 0.023666 0.023666 0.0243669 0.0243671 0.0240164 0.0240165 0.0243671 0.0243672 0.0240165 0.0240166 0.0240164 0.0240165 0.023666 0.023666 0.0240165 0.0240166 0.023666 0.023666 0.0236661 0.023666 0.023316 0.0233157 0.023666 0.023666 0.0233157 0.0233156 0.023316 0.0233157 0.0229659 0.0229655 0.0233157 0.0233156 0.0229655 0.0229652 0.023666 0.023666 0.0233156 0.0233155 0.023666 0.023666 0.0233155 