# vtk DataFile Version 3.0
#This file was generated by the deal.II library on 2022/1/6 at 21:25:27
ASCII
DATASET UNSTRUCTURED_GRID

POINTS 16384 double
0 0 0
0.1875 0 0
0 0.046875 0
0.1875 0.046875 0
0.1875 0 0
0.375 0 0
0.1875 0.046875 0
0.375 0.046875 0
0 0.046875 0
0.1875 0.046875 0
0 0.09375 0
0.1875 0.09375 0
0.1875 0.046875 0
0.375 0.046875 0
0.1875 0.09375 0
0.375 0.09375 0
0.375 0 0
0.5625 0 0
0.375 0.046875 0
0.5625 0.046875 0
0.5625 0 0
0.75 0 0
0.5625 0.046875 0
0.75 0.046875 0
0.375 0.046875 0
0.5625 0.046875 0
0.375 0.09375 0
0.5625 0.09375 0
0.5625 0.046875 0
0.75 0.046875 0
0.5625 0.09375 0
0.75 0.09375 0
0 0.09375 0
0.1875 0.09375 0
0 0.140625 0
0.1875 0.140625 0
0.1875 0.09375 0
0.375 0.09375 0
0.1875 0.140625 0
0.375 0.140625 0
0 0.140625 0
0.1875 0.140625 0
0 0.1875 0
0.1875 0.1875 0
0.1875 0.140625 0
0.375 0.140625 0
0.1875 0.1875 0
0.375 0.1875 0
0.375 0.09375 0
0.5625 0.09375 0
0.375 0.140625 0
0.5625 0.140625 0
0.5625 0.09375 0
0.75 0.09375 0
0.5625 0.140625 0
0.75 0.140625 0
0.375 0.140625 0
0.5625 0.140625 0
0.375 0.1875 0
0.5625 0.1875 0
0.5625 0.140625 0
0.75 0.140625 0
0.5625 0.1875 0
0.75 0.1875 0
0.75 0 0
0.9375 0 0
0.75 0.046875 0
0.9375 0.046875 0
0.9375 0 0
1.125 0 0
0.9375 0.046875 0
1.125 0.046875 0
0.75 0.046875 0
0.9375 0.046875 0
0.75 0.09375 0
0.9375 0.09375 0
0.9375 0.046875 0
1.125 0.046875 0
0.9375 0.09375 0
1.125 0.09375 0
1.125 0 0
1.3125 0 0
1.125 0.046875 0
1.3125 0.046875 0
1.3125 0 0
1.5 0 0
1.3125 0.046875 0
1.5 0.046875 0
1.125 0.046875 0
1.3125 0.046875 0
1.125 0.09375 0
1.3125 0.09375 0
1.3125 0.046875 0
1.5 0.046875 0
1.3125 0.09375 0
1.5 0.09375 0
0.75 0.09375 0
0.9375 0.09375 0
0.75 0.140625 0
0.9375 0.140625 0
0.9375 0.09375 0
1.125 0.09375 0
0.9375 0.140625 0
1.125 0.140625 0
0.75 0.140625 0
0.9375 0.140625 0
0.75 0.1875 0
0.9375 0.1875 0
0.9375 0.140625 0
1.125 0.140625 0
0.9375 0.1875 0
1.125 0.1875 0
1.125 0.09375 0
1.3125 0.09375 0
1.125 0.140625 0
1.3125 0.140625 0
1.3125 0.09375 0
1.5 0.09375 0
1.3125 0.140625 0
1.5 0.140625 0
1.125 0.140625 0
1.3125 0.140625 0
1.125 0.1875 0
1.3125 0.1875 0
1.3125 0.140625 0
1.5 0.140625 0
1.3125 0.1875 0
1.5 0.1875 0
0 0.1875 0
0.1875 0.1875 0
0 0.234375 0
0.1875 0.234375 0
0.1875 0.1875 0
0.375 0.1875 0
0.1875 0.234375 0
0.375 0.234375 0
0 0.234375 0
0.1875 0.234375 0
0 0.28125 0
0.1875 0.28125 0
0.1875 0.234375 0
0.375 0.234375 0
0.1875 0.28125 0
0.375 0.28125 0
0.375 0.1875 0
0.5625 0.1875 0
0.375 0.234375 0
0.5625 0.234375 0
0.5625 0.1875 0
0.75 0.1875 0
0.5625 0.234375 0
0.75 0.234375 0
0.375 0.234375 0
0.5625 0.234375 0
0.375 0.28125 0
0.5625 0.28125 0
0.5625 0.234375 0
0.75 0.234375 0
0.5625 0.28125 0
0.75 0.28125 0
0 0.28125 0
0.1875 0.28125 0
0 0.328125 0
0.1875 0.328125 0
0.1875 0.28125 0
0.375 0.28125 0
0.1875 0.328125 0
0.375 0.328125 0
0 0.328125 0
0.1875 0.328125 0
0 0.375 0
0.1875 0.375 0
0.1875 0.328125 0
0.375 0.328125 0
0.1875 0.375 0
0.375 0.375 0
0.375 0.28125 0
0.5625 0.28125 0
0.375 0.328125 0
0.5625 0.328125 0
0.5625 0.28125 0
0.75 0.28125 0
0.5625 0.328125 0
0.75 0.328125 0
0.375 0.328125 0
0.5625 0.328125 0
0.375 0.375 0
0.5625 0.375 0
0.5625 0.328125 0
0.75 0.328125 0
0.5625 0.375 0
0.75 0.375 0
0.75 0.1875 0
0.9375 0.1875 0
0.75 0.234375 0
0.9375 0.234375 0
0.9375 0.1875 0
1.125 0.1875 0
0.9375 0.234375 0
1.125 0.234375 0
0.75 0.234375 0
0.9375 0.234375 0
0.75 0.28125 0
0.9375 0.28125 0
0.9375 0.234375 0
1.125 0.234375 0
0.9375 0.28125 0
1.125 0.28125 0
1.125 0.1875 0
1.3125 0.1875 0
1.125 0.234375 0
1.3125 0.234375 0
1.3125 0.1875 0
1.5 0.1875 0
1.3125 0.234375 0
1.5 0.234375 0
1.125 0.234375 0
1.3125 0.234375 0
1.125 0.28125 0
1.3125 0.28125 0
1.3125 0.234375 0
1.5 0.234375 0
1.3125 0.28125 0
1.5 0.28125 0
0.75 0.28125 0
0.9375 0.28125 0
0.75 0.328125 0
0.9375 0.328125 0
0.9375 0.28125 0
1.125 0.28125 0
0.9375 0.328125 0
1.125 0.328125 0
0.75 0.328125 0
0.9375 0.328125 0
0.75 0.375 0
0.9375 0.375 0
0.9375 0.328125 0
1.125 0.328125 0
0.9375 0.375 0
1.125 0.375 0
1.125 0.28125 0
1.3125 0.28125 0
1.125 0.328125 0
1.3125 0.328125 0
1.3125 0.28125 0
1.5 0.28125 0
1.3125 0.328125 0
1.5 0.328125 0
1.125 0.328125 0
1.3125 0.328125 0
1.125 0.375 0
1.3125 0.375 0
1.3125 0.328125 0
1.5 0.328125 0
1.3125 0.375 0
1.5 0.375 0
1.5 0 0
1.6875 0 0
1.5 0.046875 0
1.6875 0.046875 0
1.6875 0 0
1.875 0 0
1.6875 0.046875 0
1.875 0.046875 0
1.5 0.046875 0
1.6875 0.046875 0
1.5 0.09375 0
1.6875 0.09375 0
1.6875 0.046875 0
1.875 0.046875 0
1.6875 0.09375 0
1.875 0.09375 0
1.875 0 0
2.0625 0 0
1.875 0.046875 0
2.0625 0.046875 0
2.0625 0 0
2.25 0 0
2.0625 0.046875 0
2.25 0.046875 0
1.875 0.046875 0
2.0625 0.046875 0
1.875 0.09375 0
2.0625 0.09375 0
2.0625 0.046875 0
2.25 0.046875 0
2.0625 0.09375 0
2.25 0.09375 0
1.5 0.09375 0
1.6875 0.09375 0
1.5 0.140625 0
1.6875 0.140625 0
1.6875 0.09375 0
1.875 0.09375 0
1.6875 0.140625 0
1.875 0.140625 0
1.5 0.140625 0
1.6875 0.140625 0
1.5 0.1875 0
1.6875 0.1875 0
1.6875 0.140625 0
1.875 0.140625 0
1.6875 0.1875 0
1.875 0.1875 0
1.875 0.09375 0
2.0625 0.09375 0
1.875 0.140625 0
2.0625 0.140625 0
2.0625 0.09375 0
2.25 0.09375 0
2.0625 0.140625 0
2.25 0.140625 0
1.875 0.140625 0
2.0625 0.140625 0
1.875 0.1875 0
2.0625 0.1875 0
2.0625 0.140625 0
2.25 0.140625 0
2.0625 0.1875 0
2.25 0.1875 0
2.25 0 0
2.4375 0 0
2.25 0.046875 0
2.4375 0.046875 0
2.4375 0 0
2.625 0 0
2.4375 0.046875 0
2.625 0.046875 0
2.25 0.046875 0
2.4375 0.046875 0
2.25 0.09375 0
2.4375 0.09375 0
2.4375 0.046875 0
2.625 0.046875 0
2.4375 0.09375 0
2.625 0.09375 0
2.625 0 0
2.8125 0 0
2.625 0.046875 0
2.8125 0.046875 0
2.8125 0 0
3 0 0
2.8125 0.046875 0
3 0.046875 0
2.625 0.046875 0
2.8125 0.046875 0
2.625 0.09375 0
2.8125 0.09375 0
2.8125 0.046875 0
3 0.046875 0
2.8125 0.09375 0
3 0.09375 0
2.25 0.09375 0
2.4375 0.09375 0
2.25 0.140625 0
2.4375 0.140625 0
2.4375 0.09375 0
2.625 0.09375 0
2.4375 0.140625 0
2.625 0.140625 0
2.25 0.140625 0
2.4375 0.140625 0
2.25 0.1875 0
2.4375 0.1875 0
2.4375 0.140625 0
2.625 0.140625 0
2.4375 0.1875 0
2.625 0.1875 0
2.625 0.09375 0
2.8125 0.09375 0
2.625 0.140625 0
2.8125 0.140625 0
2.8125 0.09375 0
3 0.09375 0
2.8125 0.140625 0
3 0.140625 0
2.625 0.140625 0
2.8125 0.140625 0
2.625 0.1875 0
2.8125 0.1875 0
2.8125 0.140625 0
3 0.140625 0
2.8125 0.1875 0
3 0.1875 0
1.5 0.1875 0
1.6875 0.1875 0
1.5 0.234375 0
1.6875 0.234375 0
1.6875 0.1875 0
1.875 0.1875 0
1.6875 0.234375 0
1.875 0.234375 0
1.5 0.234375 0
1.6875 0.234375 0
1.5 0.28125 0
1.6875 0.28125 0
1.6875 0.234375 0
1.875 0.234375 0
1.6875 0.28125 0
1.875 0.28125 0
1.875 0.1875 0
2.0625 0.1875 0
1.875 0.234375 0
2.0625 0.234375 0
2.0625 0.1875 0
2.25 0.1875 0
2.0625 0.234375 0
2.25 0.234375 0
1.875 0.234375 0
2.0625 0.234375 0
1.875 0.28125 0
2.0625 0.28125 0
2.0625 0.234375 0
2.25 0.234375 0
2.0625 0.28125 0
2.25 0.28125 0
1.5 0.28125 0
1.6875 0.28125 0
1.5 0.328125 0
1.6875 0.328125 0
1.6875 0.28125 0
1.875 0.28125 0
1.6875 0.328125 0
1.875 0.328125 0
1.5 0.328125 0
1.6875 0.328125 0
1.5 0.375 0
1.6875 0.375 0
1.6875 0.328125 0
1.875 0.328125 0
1.6875 0.375 0
1.875 0.375 0
1.875 0.28125 0
2.0625 0.28125 0
1.875 0.328125 0
2.0625 0.328125 0
2.0625 0.28125 0
2.25 0.28125 0
2.0625 0.328125 0
2.25 0.328125 0
1.875 0.328125 0
2.0625 0.328125 0
1.875 0.375 0
2.0625 0.375 0
2.0625 0.328125 0
2.25 0.328125 0
2.0625 0.375 0
2.25 0.375 0
2.25 0.1875 0
2.4375 0.1875 0
2.25 0.234375 0
2.4375 0.234375 0
2.4375 0.1875 0
2.625 0.1875 0
2.4375 0.234375 0
2.625 0.234375 0
2.25 0.234375 0
2.4375 0.234375 0
2.25 0.28125 0
2.4375 0.28125 0
2.4375 0.234375 0
2.625 0.234375 0
2.4375 0.28125 0
2.625 0.28125 0
2.625 0.1875 0
2.8125 0.1875 0
2.625 0.234375 0
2.8125 0.234375 0
2.8125 0.1875 0
3 0.1875 0
2.8125 0.234375 0
3 0.234375 0
2.625 0.234375 0
2.8125 0.234375 0
2.625 0.28125 0
2.8125 0.28125 0
2.8125 0.234375 0
3 0.234375 0
2.8125 0.28125 0
3 0.28125 0
2.25 0.28125 0
2.4375 0.28125 0
2.25 0.328125 0
2.4375 0.328125 0
2.4375 0.28125 0
2.625 0.28125 0
2.4375 0.328125 0
2.625 0.328125 0
2.25 0.328125 0
2.4375 0.328125 0
2.25 0.375 0
2.4375 0.375 0
2.4375 0.328125 0
2.625 0.328125 0
2.4375 0.375 0
2.625 0.375 0
2.625 0.28125 0
2.8125 0.28125 0
2.625 0.328125 0
2.8125 0.328125 0
2.8125 0.28125 0
3 0.28125 0
2.8125 0.328125 0
3 0.328125 0
2.625 0.328125 0
2.8125 0.328125 0
2.625 0.375 0
2.8125 0.375 0
2.8125 0.328125 0
3 0.328125 0
2.8125 0.375 0
3 0.375 0
0 0.375 0
0.1875 0.375 0
0 0.421875 0
0.1875 0.421875 0
0.1875 0.375 0
0.375 0.375 0
0.1875 0.421875 0
0.375 0.421875 0
0 0.421875 0
0.1875 0.421875 0
0 0.46875 0
0.1875 0.46875 0
0.1875 0.421875 0
0.375 0.421875 0
0.1875 0.46875 0
0.375 0.46875 0
0.375 0.375 0
0.5625 0.375 0
0.375 0.421875 0
0.5625 0.421875 0
0.5625 0.375 0
0.75 0.375 0
0.5625 0.421875 0
0.75 0.421875 0
0.375 0.421875 0
0.5625 0.421875 0
0.375 0.46875 0
0.5625 0.46875 0
0.5625 0.421875 0
0.75 0.421875 0
0.5625 0.46875 0
0.75 0.46875 0
0 0.46875 0
0.1875 0.46875 0
0 0.515625 0
0.1875 0.515625 0
0.1875 0.46875 0
0.375 0.46875 0
0.1875 0.515625 0
0.375 0.515625 0
0 0.515625 0
0.1875 0.515625 0
0 0.5625 0
0.1875 0.5625 0
0.1875 0.515625 0
0.375 0.515625 0
0.1875 0.5625 0
0.375 0.5625 0
0.375 0.46875 0
0.5625 0.46875 0
0.375 0.515625 0
0.5625 0.515625 0
0.5625 0.46875 0
0.75 0.46875 0
0.5625 0.515625 0
0.75 0.515625 0
0.375 0.515625 0
0.5625 0.515625 0
0.375 0.5625 0
0.5625 0.5625 0
0.5625 0.515625 0
0.75 0.515625 0
0.5625 0.5625 0
0.75 0.5625 0
0.75 0.375 0
0.9375 0.375 0
0.75 0.421875 0
0.9375 0.421875 0
0.9375 0.375 0
1.125 0.375 0
0.9375 0.421875 0
1.125 0.421875 0
0.75 0.421875 0
0.9375 0.421875 0
0.75 0.46875 0
0.9375 0.46875 0
0.9375 0.421875 0
1.125 0.421875 0
0.9375 0.46875 0
1.125 0.46875 0
1.125 0.375 0
1.3125 0.375 0
1.125 0.421875 0
1.3125 0.421875 0
1.3125 0.375 0
1.5 0.375 0
1.3125 0.421875 0
1.5 0.421875 0
1.125 0.421875 0
1.3125 0.421875 0
1.125 0.46875 0
1.3125 0.46875 0
1.3125 0.421875 0
1.5 0.421875 0
1.3125 0.46875 0
1.5 0.46875 0
0.75 0.46875 0
0.9375 0.46875 0
0.75 0.515625 0
0.9375 0.515625 0
0.9375 0.46875 0
1.125 0.46875 0
0.9375 0.515625 0
1.125 0.515625 0
0.75 0.515625 0
0.9375 0.515625 0
[...]
POINT_DATA 16384
SCALARS x_displacement double 1
LOOKUP_TABLE default
0 0.0206438 0 0.0192085 0.0206438 0.0303529 0.0192085 0.0306183 0 0.0192085 0 0.0180873 0.0192085 0.0306183 0.0180873 0.0294064 0.0303529 0.0350975 0.0306183 0.0344404 0.0350975 0.0310403 0.0344404 0.0304496 0.0306183 0.0344404 0.0294064 0.0331914 0.0344404 0.0304496 0.0331914 0.0294611 0 0.0180873 0 0.0169328 0.0180873 0.0294064 0.0169328 0.0270264 0 0.0169328 0 0.0158022 0.0169328 0.0270264 0.0158022 0.0242518 0.0294064 0.0331914 0.0270264 0.0311374 0.0331914 0.0294611 0.0311374 0.0281107 0.0270264 0.0311374 0.0242518 0.0280808 0.0311374 0.0281107 0.0280808 0.0265073 0.0310403 0.0274944 0.0304496 0.0270639 0.0274944 0.0254039 0.0270639 0.0251222 0.0304496 0.0270639 0.0294611 0.0264642 0.0270639 0.0251222 0.0264642 0.0247268 0.0254039 0.024215 0.0251222 0.023959 0.024215 0.0235148 0.023959 0.023257 0.0251222 0.023959 0.0247268 0.0236399 0.023959 0.023257 0.0236399 0.0229609 0.0294611 0.0264642 0.0281107 0.0257178 0.0264642 0.0247268 0.0257178 0.0242368 0.0281107 0.0257178 0.0265073 0.0248609 0.0257178 0.0242368 0.0248609 0.0236636 0.0247268 0.0236399 0.0242368 0.0232604 0.0236399 0.0229609 0.0232604 0.0226283 0.0242368 0.0232604 0.0236636 0.0228281 0.0232604 0.0226283 0.0228281 0.0222614 0 0.0158022 0 0.0147358 0.0158022 0.0242518 0.0147358 0.021447 0 0.0147358 0 0.0137158 0.0147358 0.021447 0.0137158 0.0191623 0.0242518 0.0280808 0.021447 0.0248757 0.0280808 0.0265073 0.0248757 0.024866 0.021447 0.0248757 0.0191623 0.0223174 0.0248757 0.024866 0.0223174 0.0232081 0 0.0137158 0 0.0128111 0.0137158 0.0191623 0.0128111 0.0173094 0 0.0128111 0 0.0120393 0.0128111 0.0173094 0.0120393 0.0158034 0.0191623 0.0223174 0.0173094 0.0202692 0.0223174 0.0232081 0.0202692 0.0216502 0.0173094 0.0202692 0.0158034 0.0185836 0.0202692 0.0216502 0.0185836 0.0202355 0.0265073 0.0248609 0.024866 0.0239057 0.0248609 0.0236636 0.0239057 0.0230267 0.024866 0.0239057 0.0232081 0.0228989 0.0239057 0.0230267 0.0228989 0.0223395 0.0236636 0.0228281 0.0230267 0.0223496 0.0228281 0.0222614 0.0223496 0.0218633 0.0230267 0.0223496 0.0223395 0.021833 0.0223496 0.0218633 0.021833 0.0214379 0.0232081 0.0228989 0.0216502 0.0218651 0.0228989 0.0223395 0.0218651 0.0216196 0.0216502 0.0218651 0.0202355 0.0208384 0.0218651 0.0216196 0.0208384 0.0208798 0.0223395 0.021833 0.0216196 0.0212861 0.021833 0.0214379 0.0212861 0.0209894 0.0216196 0.0212861 0.0208798 0.0207173 0.0212861 0.0209894 0.0207173 0.0205218 0.0235148 0.0230985 0.023257 0.0228308 0.0230985 0.022856 0.0228308 0.0225756 0.023257 0.0228308 0.0229609 0.0225391 0.0228308 0.0225756 0.0225391 0.0222801 0.022856 0.022721 0.0225756 0.0224282 0.022721 0.022653 0.0224282 0.022349 0.0225756 0.0224282 0.0222801 0.0221258 0.0224282 0.022349 0.0221258 0.0220389 0.0229609 0.0225391 0.0226283 0.0222239 0.0225391 0.0222801 0.0222239 0.0219695 0.0226283 0.0222239 0.0222614 0.0218866 0.0222239 0.0219695 0.0218866 0.0216444 0.0222801 0.0221258 0.0219695 0.0218137 0.0221258 0.0220389 0.0218137 0.0217227 0.0219695 0.0218137 0.0216444 0.0214921 0.0218137 0.0217227 0.0214921 0.0214003 0.022653 0.0226263 0.022349 0.0223125 0.0226263 0.0226241 0.0223125 0.0223022 0.022349 0.0223125 0.0220389 0.0219951 0.0223125 0.0223022 0.0219951 0.0219782 0.0226241 0.0226358 0.0223022 0.0223072 0.0226358 0.0226545 0.0223072 0.0223205 0.0223022 0.0223072 0.0219782 0.0219775 0.0223072 0.0223205 0.0219775 0.021986 0.0220389 0.0219951 0.0217227 0.0216738 0.0219951 0.0219782 0.0216738 0.0216518 0.0217227 0.0216738 0.0214003 0.0213486 0.0216738 0.0216518 0.0213486 0.021323 0.0219782 0.0219775 0.0216518 0.0216464 0.0219775 0.021986 0.0216464 0.0216508 0.0216518 0.0216464 0.021323 0.0213139 0.0216464 0.0216508 0.0213139 0.0213149 0.0222614 0.0218866 0.0218633 0.0215285 0.0218866 0.0216444 0.0215285 0.0213054 0.0218633 0.0215285 0.0214379 0.0211514 0.0215285 0.0213054 0.0211514 0.0209534 0.0216444 0.0214921 0.0213054 0.0211613 0.0214921 0.0214003 0.0211613 0.0210718 0.0213054 0.0211613 0.0209534 0.0208216 0.0211613 0.0210718 0.0208216 0.0207373 0.0214379 0.0211514 0.0209894 0.0207575 0.0211514 0.0209534 0.0207575 0.0205895 0.0209894 0.0207575 0.0205218 0.020349 0.0207575 0.0205895 0.020349 0.0202149 0.0209534 0.0208216 0.0205895 0.0204736 0.0208216 0.0207373 0.0204736 0.0203971 0.0205895 0.0204736 0.0202149 0.0201179 0.0204736 0.0203971 0.0201179 0.0200516 0.0214003 0.0213486 0.0210718 0.0210194 0.0213486 0.021323 0.0210194 0.0209917 0.0210718 0.0210194 0.0207373 0.0206862 0.0210194 0.0209917 0.0206862 0.0206578 0.021323 0.0213139 0.0209917 0.0209799 0.0213139 0.0213149 0.0209799 0.0209781 0.0209917 0.0209799 0.0206578 0.0206443 0.0209799 0.0209781 0.0206443 0.0206404 0.0207373 0.0206862 0.0203971 0.0203492 0.0206862 0.0206578 0.0203492 0.0203213 0.0203971 0.0203492 0.0200516 0.0200085 0.0203492 0.0203213 0.0200085 0.0199824 0.0206578 0.0206443 0.0203213 0.020307 0.0206443 0.0206404 0.020307 0.0203016 0.0203213 0.020307 0.0199824 0.0199681 0.020307 0.0203016 0.0199681 0.0199618 0 0.0120393 0 0.0113939 0.0120393 0.0158034 0.0113939 0.0145731 0 0.0113939 0 0.0108588 0.0113939 0.0145731 0.0108588 0.0135625 0.0158034 0.0185836 0.0145731 0.0171744 0.0185836 0.0202355 0.0171744 0.0189671 0.0145731 0.0171744 0.0135625 0.0159845 0.0171744 0.0189671 0.0159845 0.0178355 0 0.0108588 0 0.010416 0.0108588 0.0135625 0.010416 0.0127272 0 0.010416 0 0.0100488 0.010416 0.0127272 0.0100488 0.0120326 0.0135625 0.0159845 0.0127272 0.0149725 0.0159845 0.0178355 0.0149725 0.0168278 0.0127272 0.0149725 0.0120326 0.0141066 0.0149725 0.0168278 0.0141066 0.0159306 0.0202355 0.0208384 0.0189671 0.0198455 0.0208384 0.0208798 0.0198455 0.0201335 0.0189671 0.0198455 0.0178355 0.0189028 0.0198455 0.0201335 0.0189028 0.019393 0.0208798 0.0207173 0.0201335 0.0201339 0.0207173 0.0205218 0.0201339 0.0200396 0.0201335 0.0201339 0.019393 0.0195431 0.0201339 0.0200396 0.0195431 0.0195469 0.0178355 0.0189028 0.0168278 0.0180181 0.0189028 0.019393 0.0180181 0.0186682 0.0168278 0.0180181 0.0159306 0.0171944 0.0180181 0.0186682 0.0171944 0.0179665 0.019393 0.0195431 0.0186682 0.018951 0.0195431 0.0195469 0.018951 0.0190479 0.0186682 0.018951 0.0179665 0.0183634 0.018951 0.0190479 0.0183634 0.0185462 0 0.0100488 0 0.00974284 0.0100488 0.0120326 0.00974284 0.0114512 0 0.00974284 0 0.00948633 0.00974284 0.0114512 0.00948633 0.010961 0.0120326 0.0141066 0.0114512 0.0133618 0.0141066 0.0159306 0.0133618 0.0151312 0.0114512 0.0133618 0.010961 0.0127178 0.0133618 0.0151312 0.0127178 0.014418 0 0.00948633 0 0.00926972 0.00948633 0.010961 0.00926972 0.0105449 0 0.00926972 0 0.00908536 0.00926972 0.0105449 0.00908536 0.0101889 0.010961 0.0127178 0.0105449 0.0121582 0.0127178 0.014418 0.0121582 0.0137803 0.0105449 0.0121582 0.0101889 0.0116695 0.0121582 0.0137803 0.0116695 0.013209 0.0159306 0.0171944 0.0151312 0.0164314 0.0171944 0.0179665 0.0164314 0.0172928 0.0151312 0.0164314 0.014418 0.0157268 0.0164314 0.0172928 0.0157268 0.0166502 0.0179665 0.0183634 0.0172928 0.017785 0.0183634 0.0185462 0.017785 0.018045 0.0172928 0.017785 0.0166502 0.0172194 0.017785 0.018045 0.0172194 0.0175474 0.014418 0.0157268 0.0137803 0.0150774 0.0157268 0.0166502 0.0150774 0.0160401 0.0137803 0.0150774 0.013209 0.0144793 0.0150774 0.0160401 0.0144793 0.0154629 0.0166502 0.0172194 0.0160401 0.0166696 0.0172194 0.0175474 0.0166696 0.0170558 0.0160401 0.0166696 0.0154629 0.0161375 0.0166696 0.0170558 0.0161375 0.0165724 0.0205218 0.020349 0.0200396 0.0199284 0.020349 0.0202149 0.0199284 0.019831 0.0200396 0.0199284 0.0195469 0.0194981 0.0199284 0.019831 0.0194981 0.0194391 0.0202149 0.0201179 0.019831 0.0197554 0.0201179 0.0200516 0.0197554 0.019701 0.019831 0.0197554 0.0194391 0.0193868 0.0197554 0.019701 0.0193868 0.019346 0.0195469 0.0194981 0.0190479 0.0190605 0.0194981 0.0194391 0.0190605 0.0190408 0.0190479 0.0190605 0.0185462 0.018618 0.0190605 0.0190408 0.018618 0.0186375 0.0194391 0.0193868 0.0190408 0.0190129 0.0193868 0.019346 0.0190129 0.018987 0.0190408 0.0190129 0.0186375 0.0186347 0.0190129 0.018987 0.0186347 0.0186245 0.0200516 0.0200085 0.019701 0.0196643 0.0200085 0.0199824 0.0196643 0.0196411 0.019701 0.0196643 0.019346 0.0193168 0.0196643 0.0196411 0.0193168 0.0192974 0.0199824 0.0199681 0.0196411 0.0196276 0.0199681 0.0199618 0.0196276 0.0196209 0.0196411 0.0196276 0.0192974 0.0192855 0.0196276 0.0196209 0.0192855 0.019279 0.019346 0.0193168 0.018987 0.0189664 0.0193168 0.0192974 0.0189664 0.0189516 0.018987 0.0189664 0.0186245 0.0186133 0.0189664 0.0189516 0.0186133 0.0186038 0.0192974 0.0192855 0.0189516 0.0189419 0.0192855 0.019279 0.0189419 0.0189361 0.0189516 0.0189419 0.0186038 0.0185968 0.0189419 0.0189361 0.0185968 0.0185921 0.0185462 0.018618 0.018045 0.0181728 0.018618 0.0186375 0.0181728 0.0182306 0.018045 0.0181728 0.0175474 0.0177269 0.0181728 0.0182306 0.0177269 0.0178214 0.0186375 0.0186347 0.0182306 0.0182531 0.0186347 0.0186245 0.0182531 0.018259 0.0182306 0.0182531 0.0178214 0.0178689 0.0182531 0.018259 0.0178689 0.0178912 0.0175474 0.0177269 0.0170558 0.0172822 0.0177269 0.0178214 0.0172822 0.0174113 0.0170558 0.0172822 0.0165724 0.0168405 0.0172822 0.0174113 0.0168405 0.0170015 0.0178214 0.0178689 0.0174113 0.017483 0.0178689 0.0178912 0.017483 0.0175215 0.0174113 0.017483 0.0170015 0.0170961 0.017483 0.0175215 0.0170961 0.0171505 0.0186245 0.0186133 0.018259 0.0182578 0.0186133 0.0186038 0.0182578 0.0182542 0.018259 0.0182578 0.0178912 0.0179003 0.0182578 0.0182542 0.0179003 0.017903 0.0186038 0.0185968 0.0182542 0.0182504 0.0185968 0.0185921 0.0182504 0.0182471 0.0182542 0.0182504 0.017903 0.0179027 0.0182504 0.0182471 0.0179027 0.0179013 0.0178912 0.0179003 0.0175215 0.0175412 0.0179003 0.017903 0.0175412 0.0175504 0.0175215 0.0175412 0.0171505 0.0171807 0.0175412 0.0175504 0.0171807 0.0171966 0.017903 0.0179027 0.0175504 0.017554 0.0179027 0.0179013 0.017554 0.0175545 0.0175504 0.017554 0.0171966 0.0172042 0.017554 0.0175545 0.0172042 0.017207 0.0226545 0.0226758 0.0223205 0.0223376 0.0226758 0.0226972 0.0223376 0.0223555 0.0223205 0.0223376 0.021986 0.0219992 0.0223376 0.0223555 0.0219992 0.022014 0.0226972 0.022717 0.0223555 0.0223728 0.022717 0.0227346 0.0223728 0.0223884 0.0223555 0.0223728 0.022014 0.0220288 0.0223728 0.0223884 0.0220288 0.0220426 0.021986 0.0219992 0.0216508 0.0216605 0.0219992 0.022014 0.0216605 0.0216725 0.0216508 0.0216605 0.0213149 0.0213215 0.0216605 0.0216725 0.0213215 0.0213309 0.022014 0.0220288 0.0216725 0.021685 0.0220288 0.0220426 0.021685 0.0216969 0.0216725 0.021685 0.0213309 0.0213413 0.021685 0.0216969 0.0213413 0.0213514 0.0227346 0.0227497 0.0223884 0.022402 0.0227497 0.0227622 0.022402 0.0224135 0.0223884 0.022402 0.0220426 0.0220547 0.022402 0.0224135 0.0220547 0.0220651 0.0227622 0.0227724 0.0224135 0.0224229 0.0227724 0.0227805 0.0224229 0.0224305 0.0224135 0.0224229 0.0220651 0.0220737 0.0224229 0.0224305 0.0220737 0.0220807 0.0220426 0.0220547 0.0216969 0.0217076 0.0220547 0.0220651 0.0217076 0.0217169 0.0216969 0.0217076 0.0213514 0.0213608 0.0217076 0.0217169 0.0213608 0.021369 0.0220651 0.0220737 0.0217169 0.0217247 0.0220737 0.0220807 0.0217247 0.0217311 0.0217169 0.0217247 0.021369 0.021376 0.0217247 0.0217311 0.021376 0.0213817 0.0213149 0.0213215 0.0209781 0.0209821 0.0213215 0.0213309 0.0209821 0.0209892 0.0209781 0.0209821 0.0206404 0.0206422 0.0209821 0.0209892 0.0206422 0.0206473 0.0213309 0.0213413 0.0209892 0.0209976 0.0213413 0.0213514 0.0209976 0.0210061 0.0209892 0.0209976 0.0206473 0.0206538 0.0209976 0.0210061 0.0206538 0.0206608 0.0206404 0.0206422 0.0203016 0.0203017 0.0206422 0.0206473 0.0203017 0.020305 0.0203016 0.0203017 0.0199618 0.0199606 0.0203017 0.020305 0.0199606 0.0199624 0.0206473 0.0206538 0.020305 0.0203099 0.0206538 0.0206608 0.0203099 0.0203155 0.020305 0.0203099 0.0199624 0.0199659 0.0203099 0.0203155 0.0199659 0.0199701 0.0213514 0.0213608 0.0210061 0.0210141 0.0213608 0.021369 0.0210141 0.0210212 0.0210061 0.0210141 0.0206608 0.0206675 0.0210141 0.0210212 0.0206675 0.0206736 0.021369 0.021376 0.0210212 0.0210274 0.021376 0.0213817 0.0210274 0.0210325 0.0210212 0.0210274 0.0206736 0.0206789 0.0210274 0.0210325 0.0206789 0.0206834 0.0206608 0.0206675 0.0203155 0.020321 0.0206675 0.0206736 0.020321 0.0203261 0.0203155 0.020321 0.0199701 0.0199745 0.020321 0.0203261 0.0199745 0.0199786 0.0206736 0.0206789 0.0203261 0.0203306 0.0206789 0.0206834 0.0203306 0.0203344 0.0203261 0.0203306 0.0199786 0.0199824 0.0203306 0.0203344 0.0199824 0.0199856 0.0227805 0.0227868 0.0224305 0.0224364 0.0227868 0.0227916 0.0224364 0.022441 0.0224305 0.0224364 0.0220807 0.0220862 0.0224364 0.022441 0.0220862 0.0220906 0.0227916 0.0227953 0.022441 0.0224445 0.0227953 0.0227979 0.0224445 0.0224471 0.022441 0.0224445 0.0220906 0.0220939 0.0224445 0.0224471 0.0220939 0.0220963 0.0220807 0.0220862 0.0217311 0.0217362 0.0220862 0.0220906 0.0217362 0.0217402 0.0217311 0.0217362 0.0213817 0.0213864 0.0217362 0.0217402 0.0213864 0.0213901 0.0220906 0.0220939 0.0217402 0.0217433 0.0220939 0.0220963 0.0217433 0.0217457 0.0217402 0.0217433 0.0213901 0.0213929 0.0217433 0.0217457 0.0213929 0.0213951 0.0227979 0.0227999 0.0224471 0.022449 0.0227999 0.0228012 0.022449 0.0224503 0.0224471 0.022449 0.0220963 0.0220981 0.022449 0.0224503 0.0220981 0.0220994 0.0228012 0.0228021 0.0224503 0.0224512 0.0228021 0.0228027 0.0224512 0.0224518 0.0224503 0.0224512 0.0220994 0.0221003 0.0224512 0.0224518 0.0221003 0.0221009 0.0220963 0.0220981 0.0217457 0.0217474 0.0220981 0.0220994 0.0217474 0.0217486 0.0217457 0.0217474 0.0213951 0.0213967 0.0217474 0.0217486 0.0213967 0.0213979 0.0220994 0.0221003 0.0217486 0.0217495 0.0221003 0.0221009 0.0217495 0.0217501 0.0217486 0.0217495 0.0213979 0.0213987 0.0217495 0.0217501 0.0213987 0.0213993 0.0213817 0.0213864 0.0210325 0.0210367 0.0213864 0.0213901 0.0210367 0.02104 0.0210325 0.0210367 0.0206834 0.0206871 0.0210367 0.02104 0.0206871 0.0206901 0.0213901 0.0213929 0.02104 0.0210426 0.0213929 0.0213951 0.0210426 0.0210446 0.02104 0.0210426 0.0206901 0.0206924 0.0210426 0.0210446 0.0206924 0.0206942 0.0206834 0.0206871 0.0203344 0.0203376 0.0206871 0.0206901 0.0203376 0.0203402 0.0203344 0.0203376 0.0199856 0.0199882 0.0203376 0.0203402 0.0199882 0.0199904 0.0206901 0.0206924 0.0203402 0.0203423 0.0206924 0.0206942 0.0203423 0.0203438 0.0203402 0.0203423 0.0199904 0.0199922 0.0203423 0.0203438 0.0199922 0.0199935 0.0213951 0.0213967 0.0210446 0.0210461 0.0213967 0.0213979 0.0210461 0.0210472 0.0210446 0.0210461 0.0206942 0.0206955 0.0210461 0.0210472 0.0206955 0.0206965 0.0213979 0.0213987 0.0210472 0.021048 0.0213987 0.0213993 0.021048 0.0210485 0.0210472 0.021048 0.0206965 0.0206973 0.021048 0.0210485 0.0206973 0.0206978 0.0206942 0.0206955 0.0203438 0.020345 0.0206955 0.0206965 0.020345 0.0203459 0.0203438 0.020345 0.0199935 0.0199946 0.020345 0.0203459 0.0199946 0.0199954 0.0206965 0.0206973 0.0203459 0.0203466 0.0206973 0.0206978 0.0203466 0.0203471 0.0203459 0.0203466 0.0199954 0.019996 0.0203466 0.0203471 0.019996 0.0199964 0.0199618 0.0199606 0.0196209 0.0196188 0.0199606 0.0199624 0.0196188 0.0196194 0.0196209 0.0196188 0.019279 0.0192763 0.0196188 0.0196194 0.0192763 0.019276 0.0199624 0.0199659 0.0196194 0.0196217 0.0199659 0.0199701 0.0196217 0.0196247 0.0196194 0.0196217 0.019276 0.0192772 0.0196217 0.0196247 0.0192772 0.0192792 0.019279 0.0192763 0.0189361 0.0189331 0.0192763 0.019276 0.0189331 0.0189322 0.0189361 0.0189331 0.0185921 0.0185893 0.0189331 0.0189322 0.0185893 0.0185879 0.019276 0.0192772 0.0189322 0.0189325 0.0192772 0.0192792 0.0189325 0.0189335 0.0189322 0.0189325 0.0185879 0.0185875 0.0189325 0.0189335 0.0185875 0.0185877 0.0199701 0.0199745 0.0196247 0.019628 0.0199745 0.0199786 0.019628 0.0196312 0.0196247 0.019628 0.0192792 0.0192815 0.019628 0.0196312 0.0192815 0.0192839 0.0199786 0.0199824 0.0196312 0.0196342 0.0199824 0.0199856 0.0196342 0.0196368 0.0196312 0.0196342 0.0192839 0.019286 0.0196342 0.0196368 0.019286 0.019288 0.0192792 0.0192815 0.0189335 0.0189349 0.0192815 0.0192839 0.0189349 0.0189364 0.0189335 0.0189349 0.0185877 0.0185883 0.0189349 0.0189364 0.0185883 0.018589 0.0192839 0.019286 0.0189364 0.0189379 0.019286 0.019288 0.0189379 0.0189393 0.0189364 0.0189379 0.018589 0.0185898 0.0189379 0.0189393 0.0185898 0.0185906 0.0185921 0.0185893 0.0182471 0.0182447 0.0185893 0.0185879 0.0182447 0.0182431 0.0182471 0.0182447 0.0179013 0.0178995 0.0182447 0.0182431 0.0178995 0.0178978 0.0185879 0.0185875 0.0182431 0.0182421 0.0185875 0.0185877 0.0182421 0.0182416 0.0182431 0.0182421 0.0178978 0.0178965 0.0182421 0.0182416 0.0178965 0.0178954 0.0179013 0.0178995 0.0175545 0.0175536 0.0178995 0.0178978 0.0175536 0.0175521 0.0175545 0.0175536 0.017207 0.0172071 0.0175536 0.0175521 0.0172071 0.0172059 0.0178978 0.0178965 0.0175521 0.0175505 0.0178965 0.0178954 0.0175505 0.0175489 0.0175521 0.0175505 0.0172059 0.0172041 0.0175505 0.0175489 0.0172041 0.0172021 0.0185877 0.0185883 0.0182416 0.0182415 0.0185883 0.018589 0.0182415 0.0182415 0.0182416 0.0182415 0.0178954 0.0178945 0.0182415 0.0182415 0.0178945 0.0178939 0.018589 0.0185898 0.0182415 0.0182417 0.0185898 0.0185906 0.0182417 0.0182419 0.0182415 0.0182417 0.0178939 0.0178935 0.0182417 0.0182419 0.0178935 0.0178932 0.0178954 0.0178945 0.0175489 0.0175474 0.0178945 0.0178939 0.0175474 0.0175462 0.0175489 0.0175474 0.0172021 0.0172002 0.0175474 0.0175462 0.0172002 0.0171984 0.0178939 0.0178935 0.0175462 0.0175452 0.0178935 0.0178932 0.0175452 0.0175444 0.0175462 0.0175452 0.0171984 0.0171969 0.0175452 0.0175444 0.0171969 0.0171956 0.0199856 0.0199882 0.0196368 0.0196389 0.0199882 0.0199904 0.0196389 0.0196407 0.0196368 0.0196389 0.019288 0.0192897 0.0196389 0.0196407 0.0192897 0.0192911 0.0199904 0.0199922 0.0196407 0.0196422 0.0199922 0.0199935 0.0196422 0.0196433 0.0196407 0.0196422 0.0192911 0.0192922 0.0196422 0.0196433 0.0192922 0.0192931 0.019288 0.0192897 0.0189393 0.0189405 0.0192897 0.0192911 0.0189405 0.0189415 0.0189393 0.0189405 0.0185906 0.0185913 0.0189405 0.0189415 0.0185913 0.0185919 0.0192911 0.0192922 0.0189415 0.0189423 0.0192922 0.0192931 0.0189423 0.018943 0.0189415 0.0189423 0.0185919 0.0185924 0.0189423 0.018943 0.0185924 0.0185928 0.0199935 0.0199946 0.0196433 0.0196442 0.0199946 0.0199954 0.0196442 0.0196449 0.0196433 0.0196442 0.0192931 0.0192938 0.0196442 0.0196449 0.0192938 0.0192944 0.0199954 0.019996 0.0196449 0.0196453 0.019996 0.0199964 0.0196453 0.0196457 0.0196449 0.0196453 0.0192944 0.0192947 0.0196453 0.0196457 0.0192947 0.019295 0.0192931 0.0192938 0.018943 0.0189435 0.0192938 0.0192944 0.0189435 0.0189439 0.018943 0.0189435 0.0185928 0.0185932 0.0189435 0.0189439 0.0185932 0.0185934 0.0192944 0.0192947 0.0189439 0.0189442 0.0192947 0.019295 0.0189442 0.0189444 0.0189439 0.0189442 0.0185934 0.0185936 0.0189442 0.0189444 0.0185936 0.0185938 0.0185906 0.0185913 0.0182419 0.0182421 0.0185913 0.0185919 0.0182421 0.0182423 0.0182419 0.0182421 0.0178932 0.0178929 0.0182421 0.0182423 0.0178929 0.0178928 0.0185919 0.0185924 0.0182423 0.0182426 0.0185924 0.0185928 0.0182426 0.0182427 0.0182423 0.0182426 0.0178928 0.0178927 0.0182426 0.0182427 0.0178927 0.0178926 0.0178932 0.0178929 0.0175444 0.0175437 0.0178929 0.0178928 0.0175437 0.0175432 0.0175444 0.0175437 0.0171956 0.0171945 0.0175437 0.0175432 0.0171945 0.0171937 0.0178928 0.0178927 0.0175432 0.0175429 0.0178927 0.0178926 0.0175429 0.0175426 0.0175432 0.0175429 0.0171937 0.017193 0.0175429 0.0175426 0.017193 0.0171925 0.0185928 0.0185932 0.0182427 0.0182429 0.0185932 0.0185934 0.0182429 0.018243 0.0182427 0.0182429 0.0178926 0.0178926 0.0182429 0.018243 0.0178926 0.0178926 0.0185934 0.0185936 0.018243 0.0182431 0.0185936 0.0185938 0.0182431 0.0182432 0.018243 0.0182431 0.0178926 0.0178926 0.0182431 0.0182432 0.0178926 0.0178926 0.0178926 0.0178926 0.0175426 0.0175423 0.0178926 0.0178926 0.0175423 0.0175422 0.0175426 0.0175423 0.0171925 0.0171921 0.0175423 0.0175422 0.0171921 0.0171918 0.0178926 0.0178926 0.0175422 0.0175421 0.0178926 0.0178926 0.